#++++++++++++++++++++++++++++++++++++++++++++++++++++++++++++++++++++++++++++++++++++++++++++++++++++++++++++++++++++++++++++++++++++++
#
#   HiLiftPW-2 Velocity DATA SUBMITTAL FORM Case 2a (Version 1), March 2013
#
#   CASE 2 is a required Reynolds number study at 8 different angles-of-attack each.
#   Config 4 (including Slat Tracks and Flap Track Fairings) should be used.
#   A comparable *Medium* mesh density from the Grid Convergence Study should be used.
#   The required parts of this case (Case 2a and 2b) should be run FULLY TURBULENT (no forced transition).
#   An optional part of this case (Case 2c) can be run with transition specified or predicted.
#
#   This data file only asks for a subset of information to be reported: AoA=7, 18.5, and 21 only.
#
#       NOMENCLATURE:
#              ALPHA:	Angle of attack, deg.
#                 FT:   Fully Turbulent
#                 TR:   Transition specified or computed
#              X,Y,Z:   Cartesian coordinates, in mm
#             u/Uinf:   Velocity component in X-direction relative to freestream
#             v/Uinf:   Velocity component in Y-direction relative to freestream
#             w/Uinf:   Velocity component in Z-direction relative to freestream
#
#                XXX:	Participant ID (To be assigned by HiLiftPW-1 workshop committee)
#
#    FLOW CONDITIONS CASE 2a:
#                 Mach Number: 0.175
#             Reynolds Number: 1.35 million (based on MAC).
#             Freestream Temp: 298.6 K (537.48 R).
#  Freestream Static Pressure: 100700 Pa (14.6053 psi)
#
#              NOTES: 1. All numerical data fields can be free-formatted
#                     2. Please use at least 3 decimal places in the numerical values for velocity
#                     3. If optional data is NOT provided, please fill data fields with a numerical value of "-999" 
#                     4. Results are requested for both medium and fine grids
#
#++++++++++++++++++++++++++++++++++++++++++++++++++++++++++++++++++++++++++++++++++++++++++++++++++++++++++++++++++++++++++++++++++++++

TITLE = "009.3"

VARIABLES = "X" "Y" "Z" "u/Uinf" "v/Uinf" "w/Uinf"
#-----------------------------------------------------------------------------------
# ALPHA 7, medium grid:
#-----------------------------------------------------------------------------------

ZONE T="009.3 case2c a7 medium, p1, wB, line1"
# extract along Z at X=1162.58, Y=246.386, from wing upper surface to at least 59mm high above surface
 1162.58  246.386  -60.0287 0.224822 0.547852 -0.184562 
 1162.58  246.386  -59.9197 0.237253 0.562519 -0.175266 
 1162.58  246.386  -59.7862 0.252079 0.573941 -0.161175 
 1162.58  246.386  -59.6252 0.26841 0.581436 -0.142374 
 1162.58  246.386  -59.4273 0.287062 0.5847599999999999 -0.118364 
 1162.58  246.386  -59.1862 0.308787 0.580693 -0.0858937 
 1162.58  246.386  -59.0534 0.322359 0.5754359999999999 -0.06620760000000001 
 1162.58  246.386  -58.901 0.341053 0.566824 -0.0392645 
 1162.58  246.386  -58.5618 0.381418 0.530304 0.0300973 
 1162.58  246.386  -58.1479 0.459522 0.460891 0.144561 
 1162.58  246.386  -57.6696 0.567374 0.299973 0.342121 
 1162.58  246.386  -57.1364 0.688145 0.13606 0.559125 
 1162.58  246.386  -57.0895 0.698273 0.123012 0.576196 
 1162.58  246.386  -56.6646 0.744368 0.0763054 0.64412 
 1162.58  246.386  -56.4159 0.806994 0.0232113 0.729225 
 1162.58  246.386  -56.3725 0.809913 0.0195152 0.733548 
 1162.58  246.386  -56.261 0.787857 0.0290854 0.706692 
 1162.58  246.386  -56.087 0.8213859999999999 0.00281568 0.748095 
 1162.58  246.386  -56.0407 0.83784 -0.0113947 0.770953 
 1162.58  246.386  -55.8696 0.823688 -0.00964249 0.755019 
 1162.58  246.386  -55.7877 0.8351769999999999 -0.0187158 0.767506 
 1162.58  246.386  -55.6147 0.866488 -0.045851 0.8105329999999999 
 1162.58  246.386  -55.4607 0.852371 -0.0422811 0.791003 
 1162.58  246.386  -55.1356 0.871655 -0.0663473 0.815547 
 1162.58  246.386  -54.85 0.889991 -0.08779000000000001 0.837726 
 1162.58  246.386  -54.8095 0.890311 -0.0890464 0.837513 
 1162.58  246.386  -54.7362 0.888507 -0.0891689 0.834218 
 1162.58  246.386  -54.6683 0.894873 -0.0977066 0.842873 
 1162.58  246.386  -54.4804 0.893223 -0.0998959 0.838037 
 1162.58  246.386  -54.3624 0.8978429999999999 -0.106304 0.843407 
 1162.58  246.386  -54.1407 0.897573 -0.112581 0.839645 
 1162.58  246.386  -54.0418 0.903631 -0.118839 0.847384 
 1162.58  246.386  -53.9859 0.904202 -0.120565 0.847454 
 1162.58  246.386  -53.7836 0.902888 -0.128239 0.842746 
 1162.58  246.386  -53.6422 0.906209 -0.133147 0.845624 
 1162.58  246.386  -53.603 0.906516 -0.129404 0.843719 
 1162.58  246.386  -53.5593 0.909675 -0.134459 0.848639 
 1162.58  246.386  -53.5206 0.909347 -0.135236 0.847626 
 1162.58  246.386  -53.3996 0.906365 -0.135644 0.84221 
 1162.58  246.386  -53.213 0.910009 -0.138561 0.841025 
 1162.58  246.386  -52.9748 0.9055530000000001 -0.144175 0.83524 
 1162.58  246.386  -52.8129 0.908814 -0.147664 0.83464 
 1162.58  246.386  -52.7711 0.906013 -0.148949 0.83244 
 1162.58  246.386  -52.4886 0.902111 -0.154012 0.823754 
 1162.58  246.386  -52.3992 0.900832 -0.154985 0.821754 
 1162.58  246.386  -52.2686 0.898932 -0.157824 0.817883 
 1162.58  246.386  -52.1585 0.898645 -0.160656 0.815029 
 1162.58  246.386  -52.066 0.8957039999999999 -0.160856 0.810547 
 1162.58  246.386  -51.9679 0.895281 -0.163373 0.808562 
 1162.58  246.386  -51.9147 0.894102 -0.164706 0.8057 
 1162.58  246.386  -51.7075 0.890412 -0.168324 0.798345 
 1162.58  246.386  -51.3587 0.88439 -0.173973 0.784927 
 1162.58  246.386  -51.2215 0.882486 -0.176315 0.779783 
 1162.58  246.386  -51.0767 0.880336 -0.17876 0.774473 
 1162.58  246.386  -50.8402 0.877492 -0.183005 0.766132 
 1162.58  246.386  -50.7616 0.876147 -0.185592 0.764683 
 1162.58  246.386  -50.6361 0.875434 -0.186899 0.759303 
 1162.58  246.386  -50.456 0.873806 -0.190513 0.753534 
 1162.58  246.386  -50.393 0.873235 -0.191803 0.7515579999999999 
 1162.58  246.386  -50.2928 0.8722 -0.193789 0.748325 
 1162.58  246.386  -50.1432 0.870532 -0.196814 0.743515 
 1162.58  246.386  -50.0047 0.868665 -0.199564 0.738955 
 1162.58  246.386  -49.8752 0.8665079999999999 -0.202042 0.7345 
 1162.58  246.386  -49.7535 0.8639559999999999 -0.20419 0.729999 
 1162.58  246.386  -49.6384 0.860971 -0.206014 0.725369 
 1162.58  246.386  -49.5292 0.857522 -0.207415 0.720477 
 1162.58  246.386  -49.4251 0.854144 -0.208205 0.716005 
 1162.58  246.386  -49.3252 0.84921 -0.208697 0.709541 
 1162.58  246.386  -49.2298 0.84445 -0.208429 0.703398 
 1162.58  246.386  -49.1386 0.839482 -0.20741 0.696858 
 1162.58  246.386  -49.0515 0.834427 -0.205531 0.6899189999999999 
 1162.58  246.386  -48.968 0.829552 -0.20268 0.682674 
 1162.58  246.386  -48.8883 0.825035 -0.198722 0.675162 
 1162.58  246.386  -48.8118 0.821306 -0.193548 0.667602 
 1162.58  246.386  -48.7386 0.81874 -0.187037 0.660192 
 1162.58  246.386  -48.6685 0.817783 -0.179055 0.653328 
 1162.58  246.386  -48.6012 0.818946 -0.169618 0.647111 
 1162.58  246.386  -48.5365 0.822675 -0.158694 0.641934 
 1162.58  246.386  -48.4742 0.829441 -0.146395 0.638388 
 1162.58  246.386  -48.4144 0.839685 -0.13297 0.63685 
 1162.58  246.386  -48.3565 0.847611 -0.124933 0.6372370000000001 
 1162.58  246.386  -48.3004 0.871828 -0.104324 0.640767 
 1162.58  246.386  -48.2461 0.893546 -0.0899756 0.646822 
 1162.58  246.386  -48.1932 0.918432 -0.0763696 0.655639 
 1162.58  246.386  -48.1417 0.945651 -0.06412619999999999 0.666925 
 1162.58  246.386  -48.0913 0.973908 -0.0536201 0.679912 
 1162.58  246.386  -48.0419 1.00138 -0.0451805 0.693392 
 1162.58  246.386  -47.9934 1.02589 -0.0387611 0.705913 
 1162.58  246.386  -47.9453 1.0459 -0.0341966 0.716065 
 1162.58  246.386  -47.8975 1.06013 -0.0310469 0.723393 
 1162.58  246.386  -47.8499 1.06548 -0.0256813 0.7357939999999999 
 1162.58  246.386  -47.8024 1.07215 -0.0247259 0.739098 
 1162.58  246.386  -47.7513 1.07912 -0.023769 0.742552 
 1162.58  246.386  -47.7002 1.12544 -0.00698456 0.768734 
 1162.58  246.386  -47.6486 1.13901 -0.00384899 0.77633 
 1162.58  246.386  -47.5967 1.14445 -0.00407403 0.779115 
 1162.58  246.386  -47.5441 1.14828 -0.00485705 0.780984 
 1162.58  246.386  -47.491 1.15137 -0.00559418 0.7823099999999999 
 1162.58  246.386  -47.437 1.15364 -0.00659662 0.783108 
 1162.58  246.386  -47.3819 1.15538 -0.00772993 0.783546 
 1162.58  246.386  -47.3258 1.1569 -0.008681980000000001 0.783733 
 1162.58  246.386  -47.2683 1.15833 -0.009480300000000001 0.783738 
 1162.58  246.386  -47.2093 1.15989 -0.0100927 0.783727 
 1162.58  246.386  -47.1487 1.16147 -0.0106274 0.7836649999999999 
 1162.58  246.386  -47.0878 1.16301 -0.0112516 0.78364 
 1162.58  246.386  -47.0225 1.16467 -0.0120895 0.78327 
 1162.58  246.386  -46.9566 1.16611 -0.0131602 0.78289 
 1162.58  246.386  -46.8885 1.16752 -0.0142973 0.78247 
 1162.58  246.386  -46.8175 1.16892 -0.0155377 0.782019 
 1162.58  246.386  -46.7438 1.17037 -0.0167371 0.781541 
 1162.58  246.386  -46.6669 1.17198 -0.0178253 0.781046 
 1162.58  246.386  -46.5866 1.17365 -0.018898 0.780532 
 1162.58  246.386  -46.5028 1.17536 -0.0199614 0.77996 
 1162.58  246.386  -46.415 1.17713 -0.0210754 0.7793679999999999 
 1162.58  246.386  -46.3229 1.17894 -0.0222465 0.778748 
 1162.58  246.386  -46.2257 1.18083 -0.0234533 0.7781 
 1162.58  246.386  -46.1233 1.18277 -0.0246665 0.777383 
 1162.58  246.386  -46.0149 1.18481 -0.0258952 0.776627 
 1162.58  246.386  -45.8992 1.18691 -0.0271933 0.775795 
 1162.58  246.386  -45.7758 1.18905 -0.0285542 0.774873 
 1162.58  246.386  -45.6423 1.19129 -0.0299904 0.773837 
 1162.58  246.386  -45.5089 1.19345 -0.0313988 0.772783 
 1162.58  246.386  -45.3376 1.19604 -0.0331379 0.7710630000000001 
 1162.58  246.386  -45.1587 1.19866 -0.0348896 0.769232 
 1162.58  246.386  -44.9522 1.20161 -0.0368602 0.767109 
 1162.58  246.386  -44.7113 1.20498 -0.0391288 0.764692 
 1162.58  246.386  -44.4081 1.20906 -0.0419642 0.761713 
 1162.58  246.386  -44.0324 1.21398 -0.0453449 0.758163 
 1162.58  246.386  -43.7441 1.21761 -0.0478404 0.755534 
 1162.58  246.386  -43.5528 1.22002 -0.0494845 0.753372 
 1162.58  246.386  -42.9342 1.22743 -0.0545315 0.746552 
 1162.58  246.386  -42.1371 1.23606 -0.0603926 0.7378130000000001 
 1162.58  246.386  -41.7247 1.24013 -0.0631306 0.733447 
 1162.58  246.386  -41.1244 1.24569 -0.0669188 0.726301 
 1162.58  246.386  -39.8551 1.25626 -0.0739911 0.7120069999999999 
 1162.58  246.386  -39.3889 1.25973 -0.07631789999999999 0.707133 
 1162.58  246.386  -38.2896 1.2673 -0.0813566 0.694387 
 1162.58  246.386  -36.654 1.27636 -0.0873493 0.676441 
 1162.58  246.386  -36.3765 1.27773 -0.08826290000000001 0.673091 
 1162.58  246.386  -34.9458 1.28374 -0.09224019999999999 0.657117 
 1162.58  246.386  -34.0694 1.28687 -0.09439939999999999 0.647208 
 1162.58  246.386  -33.3993 1.28901 -0.0958416 0.6403799999999999 
 1162.58  246.386  -31.308 1.29422 -0.0994497 0.617681 
 1162.58  246.386  -29.4633 1.29746 -0.101743 0.5998790000000001 
 1162.58  246.386  -28.0188 1.29895 -0.102933 0.585275 
 1162.58  246.386  -26.1108 1.30006 -0.104137 0.568138 
 1162.58  246.386  -24.6214 1.30018 -0.104654 0.555145 
 1162.58  246.386  -24.1192 1.30001 -0.104704 0.550543 
 1162.58  246.386  -24.0646 1.3 -0.10471 0.550096 
 1162.58  246.386  -22.0761 1.29926 -0.104644 0.534421 
 1162.58  246.386  -20.4845 1.29805 -0.104238 0.521528 
 1162.58  246.386  -20.3099 1.29795 -0.104219 0.520333 
 1162.58  246.386  -19.5316 1.29713 -0.103852 0.514219 
 1162.58  246.386  -18.5107 1.2963 -0.103604 0.507374 
 1162.58  246.386  -14.8672 1.29148 -0.101691 0.482992 
 1162.58  246.386  -14.1483 1.29029 -0.101151 0.478142 
 1162.58  246.386  -13.451 1.28945 -0.100836 0.474219 
 1162.58  246.386  -11.927 1.28733 -0.100011 0.465626 
 1162.58  246.386  -10.6075 1.28537 -0.09920279999999999 0.458384 
 1162.58  246.386  -7.82497 1.28032 -0.09693359999999999 0.443075 
 1162.58  246.386  -7.46382 1.28007 -0.0969884 0.441783 
 1162.58  246.386  -6.30121 1.27794 -0.09605229999999999 0.435856 
 1162.58  246.386  -6.25 1.27803 -0.0961239 0.435247 
 1162.58  246.386  -5.44127 1.27676 -0.0956709 0.432072 
 1162.58  246.386  -0.404411 1.26771 -0.0921773 0.409711 
 1162.58  246.386  -0.228683 1.26746 -0.0921005 0.409044 

ZONE T="009.3 case2c a7 medium, p1, wB, line2"
# extract along Z at X=1181.87, Y=246.386, from wing upper surface to at least 59mm high above surface
 1181.87  246.386  -43.0607 1.20579 -0.200871 0.646183 
 1181.87  246.386  -43.0032 1.23747 -0.207807 0.662257 
 1181.87  246.386  -42.9414 1.26488 -0.216703 0.6763940000000001 
 1181.87  246.386  -42.8659 1.2936 -0.231429 0.692623 
 1181.87  246.386  -42.7737 1.32554 -0.252549 0.712081 
 1181.87  246.386  -42.6609 1.35886 -0.283924 0.734697 
 1181.87  246.386  -42.5234 1.38913 -0.319457 0.756821 
 1181.87  246.386  -42.3555 1.40392 -0.354775 0.76993 
 1181.87  246.386  -42.1504 1.41004 -0.375787 0.774344 
 1181.87  246.386  -41.9007 1.41222 -0.392488 0.774674 
 1181.87  246.386  -41.5966 1.41143 -0.408054 0.772525 
 1181.87  246.386  -41.2262 1.40587 -0.422872 0.766373 
 1181.87  246.386  -40.7758 1.39526 -0.435654 0.7567199999999999 
 1181.87  246.386  -40.2287 1.37811 -0.446114 0.74258 
 1181.87  246.386  -40.1704 1.37477 -0.447072 0.739054 
 1181.87  246.386  -39.881 1.36418 -0.450596 0.730326 
 1181.87  246.386  -39.6076 1.35416 -0.454359 0.722523 
 1181.87  246.386  -39.5646 1.35396 -0.453536 0.723778 
 1181.87  246.386  -39.3887 1.34912 -0.453325 0.717622 
 1181.87  246.386  -39.3488 1.34686 -0.456029 0.713564 
 1181.87  246.386  -39.1032 1.33976 -0.455577 0.706135 
 1181.87  246.386  -39.0577 1.34016 -0.453056 0.706095 
 1181.87  246.386  -38.8659 1.33408 -0.454139 0.69915 
 1181.87  246.386  -38.7641 1.33174 -0.452788 0.695646 
 1181.87  246.386  -38.6473 1.32945 -0.451169 0.692377 
 1181.87  246.386  -38.4355 1.32661 -0.44651 0.686034 
 1181.87  246.386  -38.2337 1.32576 -0.439925 0.680293 
 1181.87  246.386  -38.0413 1.32707 -0.431162 0.674914 
 1181.87  246.386  -37.8577 1.33076 -0.420052 0.66991 
 1181.87  246.386  -37.8042 1.333 -0.414316 0.6676339999999999 
 1181.87  246.386  -37.6824 1.3372 -0.406382 0.665501 
 1181.87  246.386  -37.515 1.34646 -0.390401 0.661726 
 1181.87  246.386  -37.3548 1.35846 -0.37265 0.6586649999999999 
 1181.87  246.386  -37.2016 1.3729 -0.353931 0.656389 
 1181.87  246.386  -37.0548 1.38925 -0.334985 0.655022 
 1181.87  246.386  -36.914 1.40693 -0.316392 0.654427 
 1181.87  246.386  -36.7786 1.42466 -0.299127 0.654296 
 1181.87  246.386  -36.6484 1.44115 -0.284307 0.6544759999999999 
 1181.87  246.386  -36.5236 1.45195 -0.275522 0.654633 
 1181.87  246.386  -36.4051 1.46573 -0.265157 0.654539 
 1181.87  246.386  -36.2906 1.4743 -0.259713 0.654345 
 1181.87  246.386  -36.1796 1.48136 -0.255744 0.654065 
 1181.87  246.386  -36.0717 1.48755 -0.252504 0.653735 
 1181.87  246.386  -35.9667 1.49324 -0.249622 0.653377 
 1181.87  246.386  -35.8641 1.49866 -0.246831 0.653025 
 1181.87  246.386  -35.7637 1.50389 -0.244055 0.652659 
 1181.87  246.386  -35.665 1.50895 -0.241317 0.652315 
 1181.87  246.386  -35.5678 1.51379 -0.238661 0.651956 
 1181.87  246.386  -35.4719 1.51832 -0.236147 0.651636 
 1181.87  246.386  -35.3768 1.52232 -0.233842 0.6511 
 1181.87  246.386  -35.2821 1.52545 -0.232105 0.651092 
 1181.87  246.386  -35.2267 1.53226 -0.231329 0.6500939999999999 
 1181.87  246.386  -35.1878 1.52996 -0.231603 0.648003 
 1181.87  246.386  -35.0934 1.53122 -0.230253 0.646539 
 1181.87  246.386  -34.991 1.53027 -0.229722 0.644253 
 1181.87  246.386  -34.8885 1.53343 -0.231022 0.6399280000000001 
 1181.87  246.386  -34.7861 1.53275 -0.230684 0.638165 
 1181.87  246.386  -34.6832 1.5315 -0.22979 0.635944 
 1181.87  246.386  -34.5799 1.52962 -0.228822 0.633435 
 1181.87  246.386  -34.4757 1.52825 -0.228159 0.631259 
 1181.87  246.386  -34.3708 1.52718 -0.227521 0.629247 
 1181.87  246.386  -34.2648 1.52608 -0.226816 0.627184 
 1181.87  246.386  -34.1575 1.5249 -0.226075 0.625054 
 1181.87  246.386  -34.0486 1.52365 -0.225349 0.622869 
 1181.87  246.386  -33.9381 1.52242 -0.224651 0.620699 
 1181.87  246.386  -33.8255 1.52124 -0.223963 0.618533 
 1181.87  246.386  -33.7109 1.52011 -0.223362 0.616406 
 1181.87  246.386  -33.5939 1.51892 -0.222759 0.614228 
 1181.87  246.386  -33.4744 1.51768 -0.222152 0.612006 
 1181.87  246.386  -33.3518 1.51645 -0.221546 0.60976 
 1181.87  246.386  -33.2264 1.51525 -0.220946 0.607529 
 1181.87  246.386  -33.0976 1.51403 -0.220319 0.605251 
 1181.87  246.386  -32.9652 1.5128 -0.219708 0.602955 
 1181.87  246.386  -32.8289 1.51155 -0.219118 0.600635 
 1181.87  246.386  -32.6886 1.51027 -0.218551 0.598285 
 1181.87  246.386  -32.5437 1.50894 -0.217956 0.595876 
 1181.87  246.386  -32.3941 1.50762 -0.217365 0.593441 
 1181.87  246.386  -32.2394 1.50627 -0.216772 0.590969 
 1181.87  246.386  -32.0792 1.50492 -0.216192 0.588462 
 1181.87  246.386  -31.9131 1.50352 -0.215592 0.585889 
 1181.87  246.386  -31.7406 1.50211 -0.214999 0.583271 
 1181.87  246.386  -31.561 1.50067 -0.21439 0.580589 
 1181.87  246.386  -31.3737 1.4992 -0.213733 0.577823 
 1181.87  246.386  -31.1778 1.49769 -0.213039 0.5749649999999999 
 1181.87  246.386  -30.9718 1.49615 -0.212314 0.57201 
 1181.87  246.386  -30.7543 1.49455 -0.211559 0.568936 
 1181.87  246.386  -30.5234 1.49286 -0.210713 0.565703 
 1181.87  246.386  -30.275 1.49107 -0.209821 0.56227 
 1181.87  246.386  -30.0045 1.48916 -0.208846 0.558586 
 1181.87  246.386  -29.7051 1.48708 -0.207771 0.554579 
 1181.87  246.386  -29.3657 1.48473 -0.206516 0.550091 
 1181.87  246.386  -29.0479 1.48257 -0.205379 0.546 
 1181.87  246.386  -28.9731 1.48199 -0.205073 0.545029 
 1181.87  246.386  -28.513 1.47846 -0.203222 0.539192 
 1181.87  246.386  -27.94 1.47403 -0.200901 0.532162 
 1181.87  246.386  -27.2052 1.46827 -0.19788 0.523477 
 1181.87  246.386  -26.2436 1.4608 -0.193994 0.512703 
 1181.87  246.386  -25.9544 1.45812 -0.192638 0.5093800000000001 
 1181.87  246.386  -25.3045 1.45383 -0.1903 0.502829 
 1181.87  246.386  -24.9785 1.45137 -0.188998 0.49949 
 1181.87  246.386  -23.3281 1.44006 -0.182921 0.483805 
 1181.87  246.386  -23.1399 1.43954 -0.182645 0.482561 
 1181.87  246.386  -22.3277 1.43399 -0.17963 0.475145 
 1181.87  246.386  -21.508 1.42946 -0.177338 0.468641 
 1181.87  246.386  -21.2094 1.42723 -0.175943 0.465904 
 1181.87  246.386  -18.5445 1.41257 -0.168474 0.446459 
 1181.87  246.386  -18.1491 1.41062 -0.167481 0.443883 
 1181.87  246.386  -17.9959 1.40844 -0.166502 0.442006 
 1181.87  246.386  -15.3078 1.3947 -0.159141 0.425877 
 1181.87  246.386  -15.0137 1.39283 -0.158223 0.423896 
 1181.87  246.386  -12.8037 1.38107 -0.152074 0.411175 
 1181.87  246.386  -11.3564 1.37431 -0.148292 0.403944 
 1181.87  246.386  -10.0912 1.36886 -0.145426 0.397968 
 1181.87  246.386  -8.98001 1.36467 -0.143414 0.393153 
 1181.87  246.386  -6.72703 1.35447 -0.137838 0.383161 
 1181.87  246.386  -6.60913 1.35393 -0.137544 0.382651 
 1181.87  246.386  -6.56138 1.35341 -0.137213 0.382306 
 1181.87  246.386  0.73291 1.32686 -0.124005 0.356445 
 1181.87  246.386  1.38889 1.325 -0.123036 0.354004 
 1181.87  246.386  1.87983 1.3235 -0.122418 0.353012 
 1181.87  246.386  5.47155 1.31289 -0.117402 0.342787 
 1181.87  246.386  9.02778 1.30163 -0.112015 0.332763 
 1181.87  246.386  9.41202 1.30069 -0.111609 0.33239 
 1181.87  246.386  10.8429 1.29712 -0.110114 0.32896 
 1181.87  246.386  16.6667 1.28173 -0.103468 0.315464 
 1181.87  246.386  16.7393 1.28223 -0.103817 0.316094 

ZONE T="009.3 case2c a7 medium, p1, wC, line1"
# extract along Z at X=1296.28, Y=246.386, from wing upper surface to at least 59mm high above surface
 1296.28  246.386  -37.5813 0.185318 0.0191886 -0.00598513 
 1296.28  246.386  -37.5485 0.227018 0.0226428 -0.0074214 
 1296.28  246.386  -37.505 0.364612 0.0307497 -0.0122152 
 1296.28  246.386  -37.4573 0.436084 0.032274 -0.0146638 
 1296.28  246.386  -37.3858 0.490923 0.0306731 -0.0164615 
 1296.28  246.386  -37.3375 0.514405 0.0287734 -0.0171787 
 1296.28  246.386  -37.2783 0.536349 0.0260991 -0.0178037 
 1296.28  246.386  -37.2059 0.557343 0.0224484 -0.0183481 
 1296.28  246.386  -37.1171 0.578048 0.0176985 -0.0188187 
 1296.28  246.386  -37.0083 0.599116 0.0115347 -0.0192143 
 1296.28  246.386  -36.8752 0.621215 0.00355311 -0.0195464 
 1296.28  246.386  -36.712 0.645406 -0.00699365 -0.0197187 
 1296.28  246.386  -36.5122 0.672468 -0.0208683 -0.0198937 
 1296.28  246.386  -36.2675 0.704192 -0.0390473 -0.0199557 
 1296.28  246.386  -35.9678 0.74298 -0.0629498 -0.0198733 
 1296.28  246.386  -35.6009 0.793543 -0.0961586 -0.019483 
 1296.28  246.386  -35.3303 0.834542 -0.123374 -0.0188177 
 1296.28  246.386  -35.1943 0.854791 -0.136795 -0.0184924 
 1296.28  246.386  -35.1517 0.860083 -0.140423 -0.0184131 
 1296.28  246.386  -35.0583 0.875125 -0.149939 -0.0178625 
 1296.28  246.386  -34.9225 0.896272 -0.164227 -0.0175189 
 1296.28  246.386  -34.7867 0.917978 -0.179033 -0.0172268 
 1296.28  246.386  -34.6509 0.9396330000000001 -0.193902 -0.0169252 
 1296.28  246.386  -34.6019 0.947335 -0.198671 -0.0169701 
 1296.28  246.386  -34.5152 0.960842 -0.208535 -0.0165933 
 1296.28  246.386  -34.3796 0.981341 -0.222674 -0.0162389 
 1296.28  246.386  -34.244 1.0007 -0.235975 -0.0158546 
 1296.28  246.386  -34.1084 1.01859 -0.248195 -0.0154404 
 1296.28  246.386  -33.9729 1.0348 -0.259178 -0.0149993 
 1296.28  246.386  -33.9291 1.03961 -0.262113 -0.0149264 
 1296.28  246.386  -33.8374 1.04921 -0.26885 -0.0145372 
 1296.28  246.386  -33.7019 1.06189 -0.27726 -0.0140622 
 1296.28  246.386  -33.5665 1.07289 -0.28446 -0.013571 
 1296.28  246.386  -33.431 1.08265 -0.290731 -0.0130891 
 1296.28  246.386  -33.2956 1.09138 -0.296215 -0.0126222 
 1296.28  246.386  -33.1602 1.09927 -0.301025 -0.0121812 
 1296.28  246.386  -33.0249 1.10636 -0.305189 -0.0117612 
 1296.28  246.386  -32.8896 1.11277 -0.308759 -0.0113646 
 1296.28  246.386  -32.7542 1.11856 -0.31179 -0.0109896 
 1296.28  246.386  -32.6189 1.12382 -0.314316 -0.0106351 
 1296.28  246.386  -32.4837 1.12863 -0.316393 -0.0103005 
 1296.28  246.386  -32.3484 1.13305 -0.318042 -0.009983799999999999 
 1296.28  246.386  -32.2132 1.13714 -0.319302 -0.009684160000000001 
 1296.28  246.386  -32.0779 1.14095 -0.320193 -0.009398500000000001 
 1296.28  246.386  -31.9426 1.14452 -0.320749 -0.00912929 
 1296.28  246.386  -31.8074 1.14789 -0.320997 -0.008873290000000001 
 1296.28  246.386  -31.6723 1.15111 -0.320944 -0.00862949 
 1296.28  246.386  -31.5371 1.15417 -0.320619 -0.00839649 
 1296.28  246.386  -31.4019 1.15708 -0.320034 -0.008170419999999999 
 1296.28  246.386  -31.2667 1.15986 -0.319192 -0.007954009999999999 
 1296.28  246.386  -31.1316 1.16246 -0.318077 -0.00773772 
 1296.28  246.386  -30.9965 1.16506 -0.316699 -0.00755637 
 1296.28  246.386  -30.8613 1.16734 -0.314992 -0.00726111 
 1296.28  246.386  -30.7262 1.17027 -0.313141 -0.00711653 
 1296.28  246.386  -30.5911 1.17331 -0.311041 -0.00700129 
 1296.28  246.386  -30.456 1.17632 -0.308662 -0.00688273 
 1296.28  246.386  -30.3209 1.17939 -0.306024 -0.00678469 
 1296.28  246.386  -30.1858 1.18254 -0.303127 -0.00670485 
 1296.28  246.386  -30.0507 1.18577 -0.299978 -0.0066418 
 1296.28  246.386  -29.9156 1.18907 -0.296595 -0.00659353 
 1296.28  246.386  -29.7806 1.19246 -0.292985 -0.00656012 
 1296.28  246.386  -29.6455 1.19595 -0.289167 -0.00654228 
 1296.28  246.386  -29.5104 1.19955 -0.285147 -0.00654043 
 1296.28  246.386  -29.3753 1.20325 -0.280934 -0.00655299 
 1296.28  246.386  -29.2403 1.20706 -0.276529 -0.00657881 
 1296.28  246.386  -29.1052 1.21097 -0.27194 -0.00661751 
 1296.28  246.386  -28.9701 1.21501 -0.267169 -0.00666825 
 1296.28  246.386  -28.8351 1.21915 -0.262233 -0.00672885 
 1296.28  246.386  -28.7 1.22341 -0.257135 -0.00679905 
 1296.28  246.386  -28.565 1.22778 -0.251889 -0.00687699 
 1296.28  246.386  -28.4299 1.23229 -0.2465 -0.00696208 
 1296.28  246.386  -28.2948 1.23689 -0.240983 -0.00705065 
 1296.28  246.386  -28.1598 1.24162 -0.235348 -0.00714361 
 1296.28  246.386  -28.0247 1.24647 -0.22961 -0.00723861 
 1296.28  246.386  -27.8897 1.25147 -0.223791 -0.00733593 
 1296.28  246.386  -27.7546 1.25658 -0.217896 -0.00743273 
 1296.28  246.386  -27.6196 1.26186 -0.211964 -0.0075301 
 1296.28  246.386  -27.4845 1.26728 -0.206011 -0.00762508 
 1296.28  246.386  -27.3494 1.27286 -0.20008 -0.00771847 
 1296.28  246.386  -27.2144 1.27861 -0.1942 -0.00780853 
 1296.28  246.386  -27.0793 1.28452 -0.188418 -0.00789666 
 1296.28  246.386  -26.9442 1.29064 -0.18279 -0.007976850000000001 
 1296.28  246.386  -26.8091 1.29689 -0.177194 -0.00806317 
 1296.28  246.386  -26.6741 1.30323 -0.171966 -0.008086619999999999 
 1296.28  246.386  -26.539 1.30953 -0.167003 -0.00815309 
 1296.28  246.386  -26.4039 1.31573 -0.162225 -0.008194999999999999 
 1296.28  246.386  -26.2688 1.3218 -0.157886 -0.008218929999999999 
 1296.28  246.386  -26.1337 1.3276 -0.153933 -0.008217260000000001 
 1296.28  246.386  -25.9986 1.33301 -0.150378 -0.00818906 
 1296.28  246.386  -25.8635 1.33797 -0.147211 -0.008135369999999999 
 1296.28  246.386  -25.7284 1.34241 -0.144455 -0.008059180000000001 
 1296.28  246.386  -25.5933 1.3463 -0.142055 -0.00796591 
 1296.28  246.386  -25.4581 1.34959 -0.139933 -0.007854420000000001 
 1296.28  246.386  -25.323 1.35232 -0.13803 -0.00773162 
 1296.28  246.386  -25.1879 1.3545 -0.136305 -0.0075988 
 1296.28  246.386  -25.0527 1.35622 -0.134737 -0.00746022 
 1296.28  246.386  -24.9176 1.35749 -0.133309 -0.00731474 
 1296.28  246.386  -24.7824 1.35846 -0.132027 -0.00716774 
 1296.28  246.386  -24.6473 1.35909 -0.130857 -0.00701318 
 1296.28  246.386  -24.5121 1.35949 -0.12979 -0.00685541 
 1296.28  246.386  -24.3769 1.35966 -0.128823 -0.00669021 
 1296.28  246.386  -24.2418 1.35965 -0.127947 -0.00651481 
 1296.28  246.386  -24.1066 1.35952 -0.12713 -0.00633132 
 1296.28  246.386  -23.9714 1.35927 -0.126355 -0.00613453 
 1296.28  246.386  -23.8362 1.35892 -0.125653 -0.00592852 
 1296.28  246.386  -23.7009 1.35846 -0.125009 -0.00571217 
 1296.28  246.386  -23.5657 1.35792 -0.124415 -0.00548634 
 1296.28  246.386  -23.4305 1.35732 -0.123805 -0.00524743 
 1296.28  246.386  -23.2952 1.35669 -0.123409 -0.00500791 
 1296.28  246.386  -23.16 1.35599 -0.123121 -0.00475543 
 1296.28  246.386  -23.0247 1.35517 -0.122737 -0.00447833 
 1296.28  246.386  -22.8894 1.35443 -0.122526 -0.00419492 
 1296.28  246.386  -22.7541 1.35407 -0.122724 -0.00395284 
 1296.28  246.386  -22.6188 1.35291 -0.122437 -0.00359302 
 1296.28  246.386  -22.4835 1.35327 -0.121799 -0.00323849 
 1296.28  246.386  -22.3482 1.35286 -0.122033 -0.00293081 
 1296.28  246.386  -22.2129 1.35229 -0.122245 -0.00259274 
 1296.28  246.386  -22.0776 1.35184 -0.122501 -0.00225514 
 1296.28  246.386  -21.9422 1.35141 -0.122778 -0.00190271 
 1296.28  246.386  -21.8069 1.35107 -0.123103 -0.00154773 
 1296.28  246.386  -21.6715 1.35073 -0.123459 -0.00118514 
 1296.28  246.386  -21.5361 1.35043 -0.123791 -0.000815099 
 1296.28  246.386  -21.4008 1.35015 -0.124114 -0.000439262 
 1296.28  246.386  -21.2654 1.34994 -0.124401 -6.126059999999999e-05 
 1296.28  246.386  -21.13 1.34976 -0.124701 0.000318511 
 1296.28  246.386  -20.9946 1.34961 -0.125004 0.000702799 
 1296.28  246.386  -20.8592 1.34943 -0.12523 0.00109323 
 1296.28  246.386  -20.7237 1.34946 -0.125559 0.00148299 
 1296.28  246.386  -20.5518 1.34949 -0.12618 0.00196902 
 1296.28  246.386  -20.318 1.34991 -0.127107 0.00257349 
 1296.28  246.386  -20.0003 1.35085 -0.128827 0.00330081 
 1296.28  246.386  -19.569 1.35193 -0.129717 0.00427911 
 1296.28  246.386  -18.984 1.35337 -0.130403 0.00529661 
 1296.28  246.386  -18.393 1.35313 -0.129733 0.0063428 
 1296.28  246.386  -18.1919 1.35305 -0.129498 0.0067023 
 1296.28  246.386  -17.4088 1.35147 -0.127462 0.007960439999999999 
 1296.28  246.386  -17.122 1.35089 -0.126709 0.00842246 
 1296.28  246.386  -15.6804 1.34732 -0.123844 0.0111104 
 1296.28  246.386  -13.7452 1.34408 -0.123014 0.0149352 
 1296.28  246.386  -11.1603 1.34239 -0.122577 0.0202859 
 1296.28  246.386  -7.73087 1.33959 -0.120493 0.026476 
 1296.28  246.386  -3.22215 1.33386 -0.116634 0.0337875 
 1296.28  246.386  2.06576 1.32682 -0.112578 0.041785 
 1296.28  246.386  2.63528 1.32605 -0.112143 0.042647 
 1296.28  246.386  5.81858 1.32189 -0.110225 0.0469857 
 1296.28  246.386  10.1264 1.3162 -0.107506 0.0530118 
 1296.28  246.386  10.2091 1.31609 -0.107457 0.0531213 
 1296.28  246.386  17.1662 1.30695 -0.103771 0.061353 
 1296.28  246.386  19.5162 1.30384 -0.102513 0.0641531 
 1296.28  246.386  19.7977 1.30337 -0.102257 0.0644227 
 1296.28  246.386  22.2187 1.3001 -0.10093 0.0667986 

ZONE T="009.3 case2c a7 medium, p1, wD, line1"
# extract along Z at X=1461.48, Y=246.386, from wing upper surface to at least 59mm high above surface
 1461.48  246.386  -51.2331 0.262416 0.0443503 -0.0282468 
 1461.48  246.386  -51.1719 0.287107 0.0471748 -0.0309168 
 1461.48  246.386  -51.1318 0.309435 0.049295 -0.0333442 
 1461.48  246.386  -51.0827 0.329773 0.0507117 -0.0355681 
 1461.48  246.386  -51.0226 0.348542 0.0514828 -0.0376231 
 1461.48  246.386  -50.9489 0.366062 0.0516475 -0.0395423 
 1461.48  246.386  -50.8586 0.382605 0.0511825 -0.0413528 
 1461.48  246.386  -50.7481 0.39851 0.0500923 -0.0430737 
 1461.48  246.386  -50.6971 0.402163 0.0493305 -0.0434555 
 1461.48  246.386  -50.6126 0.414067 0.0483402 -0.0447327 
 1461.48  246.386  -50.559 0.41862 0.0474374 -0.0452915 
 1461.48  246.386  -50.4467 0.429135 0.045492 -0.0464613 
 1461.48  246.386  -50.2829 0.443248 0.0426433 -0.0479628 
 1461.48  246.386  -50.2434 0.445927 0.0419346 -0.0482546 
 1461.48  246.386  -50.145 0.453446 0.0402401 -0.049025 
 1461.48  246.386  -50.0071 0.462685 0.0378125 -0.0499716 
 1461.48  246.386  -49.8692 0.471198 0.0353775 -0.0508315 
 1461.48  246.386  -49.7314 0.479124 0.0329352 -0.0516153 
 1461.48  246.386  -49.5936 0.486587 0.0304948 -0.0523394 
 1461.48  246.386  -49.4558 0.493642 0.0280481 -0.0530127 
 1461.48  246.386  -49.3181 0.500345 0.0255924 -0.0536396 