#++++++++++++++++++++++++++++++++++++++++++++++++++++++++++++++++++++++++++++++++++++++++++++++++++++++++++++++++++++++++++++++++++++++
#
#   HiLiftPW-2 Velocity DATA SUBMITTAL FORM Case 1 (Version 1), March 2013
#
#   CASE 1 is a required grid convergence study at high-Reynolds number conditions.
#   Config 2 (without Slat Tracks or Flap Track Fairings) should be used.
#   Two ALPHAs (7 and 16 deg) are required.
#   Four additional ALPHAs (18.5, 20, 21, and 22.4) are optional.
#   This case should be run FULLY TURBULENT (no forced transition).
#
#   This data file only asks for a subset of information to be reported: AoA=7, 18.5, and 21 on medium and fine grids
#
#       NOMENCLATURE:
#              ALPHA:	Angle of attack, deg.
#                 FT:   Fully Turbulent
#                 TR:   Transition specified or computed
#              X,Y,Z:   Cartesian coordinates, in mm
#             u/Uinf:   Velocity component in X-direction relative to freestream
#             v/Uinf:   Velocity component in Y-direction relative to freestream
#             w/Uinf:   Velocity component in Z-direction relative to freestream
#
#                XXX:	Participant ID (To be assigned by HiLiftPW-1 workshop committee)
#
#    FLOW CONDITIONS:
#                 Mach Number: 0.175
#             Reynolds Number: 15.1 million (based on MAC)
#             Freestream Temp: 114.0 K (205.2 R)
#  Freestream Static Pressure: 295000 Pa (42.7861 psi)
#
#              NOTES: 1. All numerical data fields can be free-formatted
#                     2. Please use at least 3 decimal places in the numerical values for velocity
#                     3. If optional data is NOT provided, please fill data fields with a numerical value of "-999" 
#                     4. Results are requested for both medium and fine grids
#                     5. There are no experimental velocity data for these high-Re conditions
#
#++++++++++++++++++++++++++++++++++++++++++++++++++++++++++++++++++++++++++++++++++++++++++++++++++++++++++++++++++++++++++++++++++++++

TITLE = "023"

VARIABLES = "X" "Y" "Z" "u/Uinf" "v/Uinf" "w/Uinf"

ZONE T="023 case1 a7 medium, p1, wB, line 1"
1162.58 246.386 -60.02868 0.56916 0.04236 1.02523
1162.58 246.386 -59.82935 0.60178 0.03558 1.07151
1162.58 246.386 -59.63002 0.62727 0.02936 1.104
1162.58 246.386 -59.43068 0.64647 0.02357 1.12333
1162.58 246.386 -59.23135 0.66163 0.01781 1.13398
1162.58 246.386 -59.03202 0.67445 0.01215 1.14005
1162.58 246.386 -58.83269 0.68432 0.00597 1.14149
1162.58 246.386 -58.63335 0.69179 -0.00015 1.13875
1162.58 246.386 -58.43402 0.6993 -0.0063 1.13612
1162.58 246.386 -58.23468 0.70284 -0.01279 1.12896
1162.58 246.386 -58.03535 0.70599 -0.0193 1.12135
1162.58 246.386 -57.83602 0.70911 -0.02578 1.11372
1162.58 246.386 -57.63669 0.71218 -0.03247 1.10508
1162.58 246.386 -57.43735 0.71543 -0.04008 1.09077
1162.58 246.386 -57.23802 0.7188 -0.04762 1.07661
1162.58 246.386 -57.03868 0.72125 -0.05358 1.06393
1162.58 246.386 -56.83935 0.72214 -0.05765 1.05326
1162.58 246.386 -56.64002 0.72331 -0.06171 1.0431
1162.58 246.386 -56.44068 0.7274 -0.06553 1.03828
1162.58 246.386 -56.24135 0.73084 -0.06971 1.03185
1162.58 246.386 -56.04202 0.73367 -0.07425 1.0239
1162.58 246.386 -55.84269 0.73661 -0.0788 1.01603
1162.58 246.386 -55.64335 0.73964 -0.08446 1.00673
1162.58 246.386 -55.44402 0.74267 -0.09051 0.9969
1162.58 246.386 -55.24468 0.74565 -0.09655 0.98693
1162.58 246.386 -55.04535 0.74809 -0.10244 0.9759
1162.58 246.386 -54.84602 0.75257 -0.10897 0.96817
1162.58 246.386 -54.64669 0.75778 -0.11435 0.96311
1162.58 246.386 -54.44735 0.76299 -0.11973 0.95804
1162.58 246.386 -54.24802 0.76808 -0.12517 0.95299
1162.58 246.386 -54.04868 0.77198 -0.13092 0.94803
1162.58 246.386 -53.84935 0.77488 -0.13689 0.94299
1162.58 246.386 -53.65002 0.77779 -0.14286 0.93794
1162.58 246.386 -53.45068 0.7807 -0.14884 0.93288
1162.58 246.386 -53.25135 0.78049 -0.1544 0.92487
1162.58 246.386 -53.05202 0.7737 -0.15969 0.91118
1162.58 246.386 -52.85269 0.76981 -0.16618 0.90066
1162.58 246.386 -52.65335 0.76689 -0.17307 0.89118
1162.58 246.386 -52.45402 0.7624 -0.17946 0.87993
1162.58 246.386 -52.25468 0.7586 -0.18634 0.87163
1162.58 246.386 -52.05535 0.75573 -0.19324 0.86514
1162.58 246.386 -51.85602 0.75314 -0.20081 0.85778
1162.58 246.386 -51.65669 0.74945 -0.21028 0.8456
1162.58 246.386 -51.45735 0.7499 -0.21882 0.8382
1162.58 246.386 -51.25802 0.75066 -0.22886 0.83081
1162.58 246.386 -51.05868 0.75225 -0.23438 0.8225
1162.58 246.386 -50.85935 0.75529 -0.2358 0.81513
1162.58 246.386 -50.66002 0.7594 -0.23652 0.80997
1162.58 246.386 -50.46069 0.7635 -0.23724 0.8048
1162.58 246.386 -50.26135 0.76776 -0.23799 0.7999
1162.58 246.386 -50.06202 0.77238 -0.23884 0.79557
1162.58 246.386 -49.86269 0.77648 -0.23836 0.78757
1162.58 246.386 -49.66335 0.79565 -0.22822 0.77772
1162.58 246.386 -49.46402 0.81446 -0.21852 0.77043
1162.58 246.386 -49.26468 0.8323 -0.21047 0.76859
1162.58 246.386 -49.06535 0.84948 -0.20355 0.77046
1162.58 246.386 -48.86602 0.86585 -0.19692 0.77222
1162.58 246.386 -48.66669 0.88549 -0.18797 0.77173
1162.58 246.386 -48.46735 0.90785 -0.17724 0.76954
1162.58 246.386 -48.26802 0.92954 -0.16683 0.76775
1162.58 246.386 -48.06868 0.95509 -0.15403 0.7686
1162.58 246.386 -47.86935 0.9809 -0.14107 0.76964
1162.58 246.386 -47.67002 1.00671 -0.12811 0.77069
1162.58 246.386 -47.47069 1.03028 -0.11628 0.7714
1162.58 246.386 -47.27135 1.05161 -0.10557 0.77198
1162.58 246.386 -47.07202 1.07212 -0.09547 0.77264
1162.58 246.386 -46.87269 1.08438 -0.09141 0.77412
1162.58 246.386 -46.67335 1.09792 -0.08666 0.77537
1162.58 246.386 -46.47402 1.11332 -0.08089 0.77626
1162.58 246.386 -46.27468 1.12872 -0.07513 0.77715
1162.58 246.386 -46.07535 1.14411 -0.06937 0.77803
1162.58 246.386 -45.87602 1.16035 -0.06369 0.77874
1162.58 246.386 -45.67669 1.1674 -0.06267 0.77959
1162.58 246.386 -45.47735 1.17384 -0.06183 0.78016
1162.58 246.386 -45.27802 1.18023 -0.06089 0.78053
1162.58 246.386 -45.07868 1.1884 -0.05839 0.78059
1162.58 246.386 -44.87935 1.19657 -0.05589 0.78065
1162.58 246.386 -44.68002 1.20474 -0.05338 0.78071
1162.58 246.386 -44.48069 1.21291 -0.05088 0.78077
1162.58 246.386 -44.28135 1.2197 -0.05044 0.78067
1162.58 246.386 -44.08202 1.22461 -0.05269 0.78033
1162.58 246.386 -43.88269 1.22976 -0.05269 0.77989
1162.58 246.386 -43.68335 1.23492 -0.05269 0.77944
1162.58 246.386 -43.48402 1.24007 -0.05268 0.77899
1162.58 246.386 -43.28468 1.24522 -0.05268 0.77854
1162.58 246.386 -43.08535 1.25036 -0.05268 0.77809
1162.58 246.386 -42.88602 1.2555 -0.05268 0.77763
1162.58 246.386 -42.68669 1.26106 -0.05233 0.77724
1162.58 246.386 -42.48735 1.2661 -0.05141 0.77579
1162.58 246.386 -42.28802 1.27004 -0.05113 0.77387
1162.58 246.386 -42.08868 1.27398 -0.05084 0.77195
1162.58 246.386 -41.88935 1.27791 -0.05056 0.77003
1162.58 246.386 -41.69002 1.28185 -0.05028 0.76811
1162.58 246.386 -41.49069 1.28579 -0.05 0.76619
1162.58 246.386 -41.29135 1.2889 -0.05065 0.76487
1162.58 246.386 -41.09202 1.29133 -0.05208 0.76406
1162.58 246.386 -40.89269 1.2935 -0.05396 0.76306
1162.58 246.386 -40.69335 1.29551 -0.05542 0.76158
1162.58 246.386 -40.49402 1.29766 -0.0564 0.76005
1162.58 246.386 -40.29468 1.29982 -0.05738 0.75851
1162.58 246.386 -40.09535 1.30186 -0.0586 0.75687
1162.58 246.386 -39.89602 1.30386 -0.05991 0.75518
1162.58 246.386 -39.69669 1.30636 -0.06137 0.75337
1162.58 246.386 -39.49735 1.30898 -0.06264 0.75161
1162.58 246.386 -39.29802 1.31161 -0.0639 0.74985
1162.58 246.386 -39.09868 1.31424 -0.06516 0.74809
1162.58 246.386 -38.89935 1.31663 -0.06616 0.74629
1162.58 246.386 -38.70002 1.31866 -0.06672 0.7444
1162.58 246.386 -38.50069 1.32069 -0.06728 0.7425
1162.58 246.386 -38.30135 1.3224 -0.06811 0.74027
1162.58 246.386 -38.10202 1.32375 -0.06929 0.73786
1162.58 246.386 -37.90268 1.32483 -0.07081 0.73564
1162.58 246.386 -37.70335 1.32591 -0.07233 0.73342
1162.58 246.386 -37.50402 1.32698 -0.07385 0.73119
1162.58 246.386 -37.30468 1.32806 -0.07537 0.72897
1162.58 246.386 -37.10535 1.32914 -0.07689 0.72675
1162.58 246.386 -36.90602 1.33022 -0.07841 0.72452
1162.58 246.386 -36.70669 1.33106 -0.0793 0.72218
1162.58 246.386 -36.50735 1.33172 -0.07976 0.71959
1162.58 246.386 -36.30802 1.33239 -0.08022 0.717
1162.58 246.386 -36.10868 1.33306 -0.08068 0.71441
1162.58 246.386 -35.90935 1.33373 -0.08114 0.71182
1162.58 246.386 -35.71002 1.3344 -0.08161 0.70924
1162.58 246.386 -35.51069 1.33507 -0.08207 0.70665
1162.58 246.386 -35.31135 1.33574 -0.08253 0.70406
1162.58 246.386 -35.11202 1.33641 -0.08299 0.70147
1162.58 246.386 -34.91268 1.33691 -0.08389 0.69895
1162.58 246.386 -34.71335 1.33737 -0.08488 0.69644
1162.58 246.386 -34.51402 1.33803 -0.08559 0.69474
1162.58 246.386 -34.31468 1.33868 -0.08631 0.69303
1162.58 246.386 -34.11535 1.33933 -0.08703 0.69133
1162.58 246.386 -33.91602 1.33999 -0.08774 0.68963
1162.58 246.386 -33.71669 1.34064 -0.08846 0.68792
1162.58 246.386 -33.51735 1.34134 -0.08936 0.68617
1162.58 246.386 -33.31802 1.34211 -0.09047 0.68436
1162.58 246.386 -33.11868 1.34288 -0.09158 0.68255
1162.58 246.386 -32.91935 1.34364 -0.09269 0.68074
1162.58 246.386 -32.72002 1.34441 -0.0938 0.67893
1162.58 246.386 -32.52069 1.34516 -0.09491 0.67713
1162.58 246.386 -32.32135 1.34523 -0.09445 0.67501
1162.58 246.386 -32.12202 1.34575 -0.09463 0.67292
1162.58 246.386 -31.92268 1.34644 -0.09558 0.67078
1162.58 246.386 -31.72335 1.34632 -0.09575 0.66823
1162.58 246.386 -31.52402 1.34628 -0.09616 0.66567
1162.58 246.386 -31.32468 1.34632 -0.09671 0.66311
1162.58 246.386 -31.12535 1.34644 -0.09728 0.66032
1162.58 246.386 -30.92602 1.34664 -0.09788 0.65722
1162.58 246.386 -30.72668 1.34685 -0.09848 0.65413
1162.58 246.386 -30.52735 1.34705 -0.09907 0.65103
1162.58 246.386 -30.32802 1.34711 -0.09958 0.64797
1162.58 246.386 -30.12869 1.34717 -0.1001 0.64491
1162.58 246.386 -29.92935 1.34726 -0.1006 0.64209
1162.58 246.386 -29.73002 1.34749 -0.10105 0.64021
1162.58 246.386 -29.53069 1.3475 -0.10138 0.63838
1162.58 246.386 -29.33135 1.34743 -0.10167 0.63657
1162.58 246.386 -29.13202 1.34736 -0.10195 0.63476
1162.58 246.386 -28.93269 1.34728 -0.10224 0.63295
1162.58 246.386 -28.73335 1.3472 -0.10253 0.63114
1162.58 246.386 -28.53402 1.34711 -0.10281 0.62933
1162.58 246.386 -28.33468 1.34703 -0.1031 0.62752
1162.58 246.386 -28.13535 1.34697 -0.10343 0.62539
1162.58 246.386 -27.93602 1.34696 -0.10383 0.62277
1162.58 246.386 -27.73668 1.34694 -0.10422 0.62015
1162.58 246.386 -27.53735 1.34693 -0.10461 0.61753
1162.58 246.386 -27.33802 1.34692 -0.10501 0.61491
1162.58 246.386 -27.13868 1.3469 -0.1054 0.6123
1162.58 246.386 -26.93935 1.34689 -0.10579 0.60965
1162.58 246.386 -26.74002 1.34687 -0.10618 0.60698
1162.58 246.386 -26.54069 1.34685 -0.10656 0.60431
1162.58 246.386 -26.34135 1.34684 -0.10682 0.60206
1162.58 246.386 -26.14202 1.34682 -0.10698 0.60017
1162.58 246.386 -25.94269 1.34681 -0.10714 0.59827
1162.58 246.386 -25.74335 1.3468 -0.1073 0.59637
1162.58 246.386 -25.54402 1.34678 -0.10746 0.59448
1162.58 246.386 -25.34468 1.34663 -0.10753 0.59262
1162.58 246.386 -25.14535 1.34644 -0.10758 0.59076
1162.58 246.386 -24.94602 1.34626 -0.10764 0.58891
1162.58 246.386 -24.74668 1.34608 -0.1077 0.58705
1162.58 246.386 -24.54735 1.3459 -0.10776 0.5852
1162.58 246.386 -24.34802 1.34572 -0.10781 0.58335
1162.58 246.386 -24.14868 1.34554 -0.10787 0.5815
1162.58 246.386 -23.94935 1.34503 -0.10791 0.57953
1162.58 246.386 -23.75002 1.34433 -0.10794 0.57748
1162.58 246.386 -23.55069 1.34362 -0.10797 0.57546
1162.58 246.386 -23.35135 1.34301 -0.10796 0.57355
1162.58 246.386 -23.15202 1.34253 -0.1079 0.57177
1162.58 246.386 -22.95269 1.34205 -0.10785 0.56999
1162.58 246.386 -22.75335 1.34157 -0.10779 0.56822
1162.58 246.386 -22.55402 1.34114 -0.10775 0.56661
1162.58 246.386 -22.35468 1.34073 -0.10773 0.56512
1162.58 246.386 -22.15535 1.34033 -0.10771 0.56363
1162.58 246.386 -21.95602 1.33993 -0.10769 0.56214
1162.58 246.386 -21.75668 1.33952 -0.10767 0.56065
1162.58 246.386 -21.55735 1.33912 -0.10764 0.55916
1162.58 246.386 -21.35802 1.33872 -0.10762 0.55767
1162.58 246.386 -21.15868 1.33831 -0.10759 0.55618
1162.58 246.386 -20.95935 1.3379 -0.10756 0.55469
1162.58 246.386 -20.76002 1.3375 -0.10752 0.5532
1162.58 246.386 -20.56069 1.33709 -0.10748 0.55171
1162.58 246.386 -20.36135 1.33669 -0.10745 0.55022
1162.58 246.386 -20.16202 1.33629 -0.10741 0.54872
1162.58 246.386 -19.96269 1.33589 -0.10737 0.54723
1162.58 246.386 -19.76335 1.33549 -0.10734 0.54574
1162.58 246.386 -19.56402 1.33509 -0.1073 0.54424
1162.58 246.386 -19.36468 1.33469 -0.10727 0.54275
1162.58 246.386 -19.16535 1.33429 -0.10723 0.54126
1162.58 246.386 -18.96602 1.33388 -0.10719 0.53976
1162.58 246.386 -18.76668 1.33348 -0.10716 0.53827
1162.58 246.386 -18.56735 1.3328 -0.10707 0.53656
1162.58 246.386 -18.36802 1.33212 -0.10697 0.53485
1162.58 246.386 -18.16868 1.33143 -0.10688 0.53315
1162.58 246.386 -17.96935 1.33117 -0.10689 0.53131
1162.58 246.386 -17.77002 1.33092 -0.10689 0.52947
1162.58 246.386 -17.57069 1.33069 -0.10686 0.52792
1162.58 246.386 -17.37135 1.33046 -0.1068 0.52656
1162.58 246.386 -17.17202 1.33023 -0.10674 0.52521
1162.58 246.386 -16.97269 1.33 -0.10668 0.52384
1162.58 246.386 -16.77335 1.32979 -0.10664 0.52242
1162.58 246.386 -16.57402 1.32958 -0.1066 0.52099
1162.58 246.386 -16.37468 1.32937 -0.10655 0.51956
1162.58 246.386 -16.17535 1.32916 -0.10651 0.51814
1162.58 246.386 -15.97602 1.32895 -0.10647 0.51671
1162.58 246.386 -15.77668 1.32874 -0.10642 0.51529
1162.58 246.386 -15.57735 1.32853 -0.10638 0.51386
1162.58 246.386 -15.37802 1.32832 -0.10634 0.51243
1162.58 246.386 -15.17869 1.32811 -0.1063 0.51101
1162.58 246.386 -14.97935 1.32779 -0.10621 0.50963
1162.58 246.386 -14.78002 1.32729 -0.10603 0.50834
1162.58 246.386 -14.58068 1.32679 -0.10586 0.50706
1162.58 246.386 -14.38135 1.32628 -0.10568 0.50577
1162.58 246.386 -14.18202 1.32578 -0.10551 0.50448
1162.58 246.386 -13.98269 1.32528 -0.10533 0.5032
1162.58 246.386 -13.78335 1.32478 -0.10515 0.50191
1162.58 246.386 -13.58402 1.32427 -0.10498 0.50062
1162.58 246.386 -13.38468 1.32377 -0.1048 0.49934
1162.58 246.386 -13.18535 1.32327 -0.10463 0.49805
1162.58 246.386 -12.98602 1.32276 -0.10445 0.49676
1162.58 246.386 -12.78668 1.32226 -0.10428 0.49548
1162.58 246.386 -12.58735 1.32176 -0.1041 0.49419
1162.58 246.386 -12.38802 1.32131 -0.10396 0.4928
1162.58 246.386 -12.18869 1.32092 -0.10386 0.49131
1162.58 246.386 -11.98935 1.32053 -0.10376 0.48982
1162.58 246.386 -11.79002 1.32014 -0.10366 0.48834
1162.58 246.386 -11.59068 1.31983 -0.10357 0.48688
1162.58 246.386 -11.39135 1.31959 -0.1035 0.48546
1162.58 246.386 -11.19202 1.31937 -0.10343 0.48403
1162.58 246.386 -10.99268 1.31914 -0.10338 0.48274
1162.58 246.386 -10.79335 1.3189 -0.10334 0.48153
1162.58 246.386 -10.59402 1.31866 -0.1033 0.48032
1162.58 246.386 -10.39468 1.31842 -0.10326 0.47911
1162.58 246.386 -10.19535 1.31819 -0.10322 0.4779
1162.58 246.386 -9.996018 1.31826 -0.10335 0.47666
1162.58 246.386 -9.796685 1.31847 -0.10354 0.4754
1162.58 246.386 -9.597352 1.31868 -0.10373 0.47414
1162.58 246.386 -9.398018 1.3189 -0.10393 0.47288
1162.58 246.386 -9.198685 1.31912 -0.10412 0.47161
1162.58 246.386 -8.999351 1.31933 -0.10432 0.47035
1162.58 246.386 -8.800019 1.31955 -0.10451 0.46909
1162.58 246.386 -8.600685 1.31976 -0.1047 0.46783
1162.58 246.386 -8.401352 1.31998 -0.1049 0.46657
1162.58 246.386 -8.202018 1.3202 -0.10509 0.46531
1162.58 246.386 -8.002684 1.32041 -0.10529 0.46405
1162.58 246.386 -7.803352 1.32063 -0.10548 0.46279
1162.58 246.386 -7.604018 1.32085 -0.10567 0.46152
1162.58 246.386 -7.404685 1.32027 -0.10547 0.46042
1162.58 246.386 -7.205352 1.31969 -0.10527 0.45932
1162.58 246.386 -7.006018 1.31911 -0.10507 0.45822
1162.58 246.386 -6.806685 1.31854 -0.10487 0.45712
1162.58 246.386 -6.607351 1.3179 -0.10463 0.45613
1162.58 246.386 -6.408018 1.31705 -0.10425 0.45559
1162.58 246.386 -6.208685 1.3162 -0.10386 0.45504
1162.58 246.386 -6.009351 1.31535 -0.10348 0.45449
1162.58 246.386 -5.810018 1.3145 -0.10309 0.45372
1162.58 246.386 -5.610685 1.31365 -0.10269 0.45291
1162.58 246.386 -5.411352 1.3128 -0.1023 0.4521
1162.58 246.386 -5.212018 1.31196 -0.10191 0.45129
1162.58 246.386 -5.012685 1.3111 -0.10151 0.45049
1162.58 246.386 -4.813352 1.31025 -0.10112 0.44968
1162.58 246.386 -4.614018 1.30949 -0.10079 0.4488
1162.58 246.386 -4.414685 1.30873 -0.10047 0.44792
1162.58 246.386 -4.215351 1.30797 -0.10014 0.44705
1162.58 246.386 -4.016018 1.30721 -0.09981 0.44617
1162.58 246.386 -3.816685 1.30646 -0.09948 0.44529
1162.58 246.386 -3.617351 1.3057 -0.09916 0.44442
1162.58 246.386 -3.418018 1.30494 -0.09883 0.44354
1162.58 246.386 -3.218685 1.30418 -0.0985 0.44267
1162.58 246.386 -3.019352 1.30387 -0.0984 0.44177
1162.58 246.386 -2.820018 1.30357 -0.0983 0.44087
1162.58 246.386 -2.620685 1.30326 -0.0982 0.43997
1162.58 246.386 -2.421352 1.30296 -0.0981 0.43907
1162.58 246.386 -2.222018 1.30265 -0.098 0.43817
1162.58 246.386 -2.022685 1.30234 -0.09791 0.43727
1162.58 246.386 -1.823351 1.30203 -0.09781 0.43638
1162.58 246.386 -1.624018 1.30172 -0.09771 0.43548
1162.58 246.386 -1.424685 1.30141 -0.09761 0.43458
1162.58 246.386 -1.225351 1.30111 -0.09751 0.43368
1162.58 246.386 -1.026018 1.3008 -0.09741 0.43278
1162.58 246.386 -0.8266849 1.30049 -0.09731 0.43188
1162.58 246.386 -0.6273515 1.30018 -0.09722 0.43099
1162.58 246.386 -0.4280182 1.29987 -0.09712 0.43009
1162.58 246.386 -0.2286848 1.29956 -0.09702 0.42919

ZONE T="023 case1 a7 medium, p1, wB, line 2"
1181.87 246.386 -43.06073 1.37956 -0.44974 0.80999
1181.87 246.386 -42.8614 1.45226 -0.47546 0.84852
1181.87 246.386 -42.66207 1.47187 -0.48991 0.85729
1181.87 246.386 -42.46274 1.47369 -0.50091 0.85629
1181.87 246.386 -42.2634 1.46742 -0.51023 0.85066
1181.87 246.386 -42.06407 1.45727 -0.51655 0.84308
1181.87 246.386 -41.86473 1.44624 -0.52304 0.83425
1181.87 246.386 -41.6654 1.43677 -0.52476 0.82547
1181.87 246.386 -41.46607 1.42743 -0.52562 0.81658
1181.87 246.386 -41.26674 1.41764 -0.52745 0.80638
1181.87 246.386 -41.0674 1.41477 -0.52162 0.79784
1181.87 246.386 -40.86807 1.41191 -0.51553 0.7893
1181.87 246.386 -40.66873 1.40904 -0.50936 0.78077
1181.87 246.386 -40.4694 1.40582 -0.50368 0.77135
1181.87 246.386 -40.27007 1.40936 -0.49102 0.76348
1181.87 246.386 -40.07073 1.41462 -0.47655 0.75611
1181.87 246.386 -39.8714 1.41989 -0.46209 0.74879
1181.87 246.386 -39.67207 1.42517 -0.44764 0.74162
1181.87 246.386 -39.47274 1.43037 -0.4329 0.73461
1181.87 246.386 -39.2734 1.43535 -0.41762 0.7269
1181.87 246.386 -39.07407 1.43952 -0.40906 0.72174
1181.87 246.386 -38.87473 1.44332 -0.40347 0.7177
1181.87 246.386 -38.6754 1.44713 -0.39789 0.71367
1181.87 246.386 -38.47607 1.45059 -0.39246 0.70998
1181.87 246.386 -38.27674 1.45356 -0.38725 0.7068
1181.87 246.386 -38.0774 1.4568 -0.38214 0.7034
1181.87 246.386 -37.87807 1.46023 -0.37711 0.69985
1181.87 246.386 -37.67873 1.46365 -0.37208 0.6963
1181.87 246.386 -37.4794 1.46707 -0.36705 0.69276
1181.87 246.386 -37.28007 1.4703 -0.36282 0.68926
1181.87 246.386 -37.08073 1.47348 -0.35878 0.68577
1181.87 246.386 -36.8814 1.47666 -0.35475 0.68229
1181.87 246.386 -36.68207 1.47929 -0.35091 0.67935
1181.87 246.386 -36.48274 1.48165 -0.34718 0.67669
1181.87 246.386 -36.2834 1.484 -0.34345 0.67403
1181.87 246.386 -36.08407 1.48636 -0.33973 0.67137
1181.87 246.386 -35.88473 1.48871 -0.336 0.66871
1181.87 246.386 -35.6854 1.49106 -0.33228 0.66605
1181.87 246.386 -35.48607 1.49341 -0.32856 0.66339
1181.87 246.386 -35.28674 1.49576 -0.32484 0.66074
1181.87 246.386 -35.0874 1.49852 -0.32134 0.65769
1181.87 246.386 -34.88807 1.50139 -0.3179 0.65457
1181.87 246.386 -34.68873 1.50385 -0.31475 0.65152
1181.87 246.386 -34.4894 1.5059 -0.31191 0.64853
1181.87 246.386 -34.29007 1.50795 -0.30907 0.64555
1181.87 246.386 -34.09074 1.50991 -0.30633 0.64256
1181.87 246.386 -33.8914 1.51141 -0.30405 0.63976
1181.87 246.386 -33.69207 1.51289 -0.30167 0.63692
1181.87 246.386 -33.49274 1.51436 -0.29929 0.63409
1181.87 246.386 -33.2934 1.51583 -0.2969 0.63126
1181.87 246.386 -33.09407 1.51731 -0.29453 0.62844
1181.87 246.386 -32.89473 1.51879 -0.29215 0.62561
1181.87 246.386 -32.6954 1.52026 -0.28977 0.62279
1181.87 246.386 -32.49607 1.52174 -0.2874 0.61996
1181.87 246.386 -32.29674 1.52321 -0.28502 0.61714
1181.87 246.386 -32.0974 1.52469 -0.28265 0.61432
1181.87 246.386 -31.89807 1.52616 -0.28027 0.6115
1181.87 246.386 -31.69873 1.52764 -0.2779 0.60868
1181.87 246.386 -31.4994 1.52911 -0.27553 0.60587
1181.87 246.386 -31.30007 1.53011 -0.27342 0.60253
1181.87 246.386 -31.10074 1.53097 -0.27139 0.59902
1181.87 246.386 -30.9014 1.53141 -0.26846 0.5953
1181.87 246.386 -30.70207 1.53131 -0.2643 0.59127
1181.87 246.386 -30.50273 1.5312 -0.26014 0.58725
1181.87 246.386 -30.3034 1.5311 -0.25599 0.58322
1181.87 246.386 -30.10407 1.531 -0.25184 0.5792
1181.87 246.386 -29.90473 1.53084 -0.24867 0.57605
1181.87 246.386 -29.7054 1.53066 -0.24593 0.57327
1181.87 246.386 -29.50607 1.53049 -0.24319 0.5705
1181.87 246.386 -29.30673 1.53031 -0.24044 0.56772
1181.87 246.386 -29.1074 1.52984 -0.23839 0.5651
1181.87 246.386 -28.90807 1.52913 -0.23688 0.5626
1181.87 246.386 -28.70874 1.52842 -0.23538 0.5601
1181.87 246.386 -28.5094 1.52771 -0.23387 0.5576
1181.87 246.386 -28.31007 1.527 -0.23237 0.55511
1181.87 246.386 -28.11074 1.52629 -0.23087 0.55261
1181.87 246.386 -27.9114 1.52558 -0.22936 0.55011
1181.87 246.386 -27.71207 1.52487 -0.22786 0.54762
1181.87 246.386 -27.51273 1.52416 -0.22636 0.54512
1181.87 246.386 -27.3134 1.52345 -0.22486 0.54262
1181.87 246.386 -27.11407 1.52274 -0.22336 0.54013
1181.87 246.386 -26.91473 1.52228 -0.22143 0.53831
1181.87 246.386 -26.7154 1.52191 -0.21937 0.53671
1181.87 246.386 -26.51607 1.52153 -0.21731 0.53511
1181.87 246.386 -26.31673 1.52116 -0.21525 0.53351
1181.87 246.386 -26.1174 1.52078 -0.21319 0.5319
1181.87 246.386 -25.91807 1.5204 -0.21113 0.5303
1181.87 246.386 -25.71874 1.52003 -0.20907 0.5287
1181.87 246.386 -25.5194 1.51961 -0.20714 0.52702
1181.87 246.386 -25.32007 1.51893 -0.20606 0.52479
1181.87 246.386 -25.12074 1.51824 -0.20499 0.52256
1181.87 246.386 -24.9214 1.51756 -0.20391 0.52034
1181.87 246.386 -24.72207 1.51688 -0.20284 0.51811
1181.87 246.386 -24.52273 1.51619 -0.20176 0.51588
1181.87 246.386 -24.3234 1.51551 -0.20069 0.51365
1181.87 246.386 -24.12407 1.51467 -0.19954 0.51155
1181.87 246.386 -23.92473 1.51312 -0.19808 0.50998
1181.87 246.386 -23.7254 1.51156 -0.19662 0.5084
1181.87 246.386 -23.52607 1.51 -0.19516 0.50683
1181.87 246.386 -23.32673 1.50844 -0.1937 0.50525
1181.87 246.386 -23.1274 1.50693 -0.19227 0.50387
1181.87 246.386 -22.92807 1.50549 -0.19087 0.50268
1181.87 246.386 -22.72874 1.50404 -0.18948 0.5015
1181.87 246.386 -22.5294 1.5026 -0.18808 0.50031
1181.87 246.386 -22.33007 1.50116 -0.18669 0.49913
1181.87 246.386 -22.13074 1.49971 -0.18529 0.49794
1181.87 246.386 -21.9314 1.49827 -0.1839 0.49676
1181.87 246.386 -21.73207 1.49679 -0.18274 0.49289
1181.87 246.386 -21.53273 1.49541 -0.18201 0.49146
1181.87 246.386 -21.3334 1.49403 -0.18127 0.49002
1181.87 246.386 -21.13407 1.49264 -0.18053 0.48859
1181.87 246.386 -20.93473 1.49126 -0.17979 0.48716
1181.87 246.386 -20.7354 1.48987 -0.17906 0.48573
1181.87 246.386 -20.53607 1.48849 -0.17832 0.48429
1181.87 246.386 -20.33673 1.4871 -0.17758 0.48286
1181.87 246.386 -20.1374 1.48572 -0.17685 0.48143
1181.87 246.386 -19.93807 1.48433 -0.17611 0.47999
1181.87 246.386 -19.73874 1.48294 -0.17537 0.47856
1181.87 246.386 -19.5394 1.48155 -0.17464 0.47713
1181.87 246.386 -19.34007 1.48018 -0.17393 0.47585
1181.87 246.386 -19.14074 1.4789 -0.1733 0.4748
1181.87 246.386 -18.9414 1.47762 -0.17266 0.47374
1181.87 246.386 -18.74207 1.47634 -0.17203 0.47269
1181.87 246.386 -18.54273 1.47506 -0.17139 0.47163
1181.87 246.386 -18.3434 1.47378 -0.17076 0.47058
1181.87 246.386 -18.14407 1.4725 -0.17012 0.46952
1181.87 246.386 -17.94473 1.47122 -0.16949 0.46847
1181.87 246.386 -17.7454 1.46995 -0.16885 0.46741
1181.87 246.386 -17.54607 1.46867 -0.16822 0.46636
1181.87 246.386 -17.34673 1.46739 -0.16759 0.4653
1181.87 246.386 -17.1474 1.46561 -0.16665 0.46389
1181.87 246.386 -16.94807 1.46379 -0.1657 0.46244
1181.87 246.386 -16.74874 1.46214 -0.16489 0.46102
1181.87 246.386 -16.5494 1.46095 -0.16448 0.45972
1181.87 246.386 -16.35007 1.45975 -0.16408 0.45842
1181.87 246.386 -16.15074 1.45856 -0.16367 0.45712
1181.87 246.386 -15.9514 1.45737 -0.16327 0.45582
1181.87 246.386 -15.75207 1.45605 -0.16283 0.45432
1181.87 246.386 -15.55273 1.45468 -0.16238 0.45272
1181.87 246.386 -15.3534 1.4533 -0.16193 0.45113
1181.87 246.386 -15.15407 1.45193 -0.16148 0.44953
1181.87 246.386 -14.95473 1.45091 -0.16118 0.44814
1181.87 246.386 -14.7554 1.45002 -0.16093 0.44683
1181.87 246.386 -14.55607 1.44892 -0.16059 0.44531
1181.87 246.386 -14.35674 1.44768 -0.16019 0.44362
1181.87 246.386 -14.1574 1.44645 -0.15978 0.44194
1181.87 246.386 -13.95807 1.44522 -0.15937 0.44026
1181.87 246.386 -13.75873 1.44399 -0.15897 0.43857
1181.87 246.386 -13.5594 1.44276 -0.15856 0.43689
1181.87 246.386 -13.36007 1.44152 -0.15815 0.43521
1181.87 246.386 -13.16073 1.44029 -0.15775 0.43352
1181.87 246.386 -12.9614 1.43906 -0.15734 0.43184
1181.87 246.386 -12.76207 1.43783 -0.15693 0.43016
1181.87 246.386 -12.56274 1.4366 -0.15653 0.42848
1181.87 246.386 -12.3634 1.43537 -0.15612 0.4268
1181.87 246.386 -12.16407 1.43414 -0.15571 0.42512
1181.87 246.386 -11.96473 1.43291 -0.15531 0.42343
1181.87 246.386 -11.7654 1.43167 -0.1549 0.42175
1181.87 246.386 -11.56607 1.43044 -0.1545 0.42007
1181.87 246.386 -11.36674 1.42897 -0.15401 0.41838
1181.87 246.386 -11.1674 1.42749 -0.15352 0.41669
1181.87 246.386 -10.96807 1.42623 -0.15307 0.41551
1181.87 246.386 -10.76873 1.42515 -0.15267 0.41486
1181.87 246.386 -10.5694 1.42388 -0.15226 0.41412
1181.87 246.386 -10.37007 1.42261 -0.15186 0.41338
1181.87 246.386 -10.17073 1.42134 -0.15145 0.41265
1181.87 246.386 -9.971402 1.42008 -0.15105 0.41191
1181.87 246.386 -9.772068 1.41881 -0.15065 0.41117
1181.87 246.386 -9.572735 1.41754 -0.15024 0.41044
1181.87 246.386 -9.373401 1.41627 -0.14984 0.4097
1181.87 246.386 -9.174068 1.415 -0.14943 0.40896
1181.87 246.386 -8.974735 1.41374 -0.14903 0.40823
1181.87 246.386 -8.775402 1.41247 -0.14862 0.40749
1181.87 246.386 -8.576068 1.4112 -0.14822 0.40675
1181.87 246.386 -8.376735 1.40993 -0.14781 0.40602
1181.87 246.386 -8.177401 1.40867 -0.14741 0.40528
1181.87 246.386 -7.978069 1.4074 -0.147 0.40454
1181.87 246.386 -7.778735 1.40613 -0.1466 0.40381
1181.87 246.386 -7.579402 1.40487 -0.1462 0.40307
1181.87 246.386 -7.380068 1.4036 -0.14579 0.40233
1181.87 246.386 -7.180735 1.40233 -0.14539 0.4016
1181.87 246.386 -6.981402 1.40107 -0.14498 0.40086
1181.87 246.386 -6.782068 1.3998 -0.14458 0.40012
1181.87 246.386 -6.582735 1.39853 -0.14418 0.39939
1181.87 246.386 -6.383401 1.39726 -0.14377 0.39865
1181.87 246.386 -6.184068 1.39599 -0.14337 0.39792
1181.87 246.386 -5.984735 1.39472 -0.14296 0.39718
1181.87 246.386 -5.785401 1.39305 -0.14252 0.39602
1181.87 246.386 -5.586068 1.39134 -0.14208 0.39483
1181.87 246.386 -5.386735 1.38974 -0.14166 0.3937
1181.87 246.386 -5.187402 1.38873 -0.14137 0.39293
1181.87 246.386 -4.988068 1.38771 -0.14108 0.39215
1181.87 246.386 -4.788735 1.3867 -0.14079 0.39138
1181.87 246.386 -4.589402 1.38569 -0.1405 0.3906
1181.87 246.386 -4.390068 1.38467 -0.14021 0.38983
1181.87 246.386 -4.190735 1.38366 -0.13992 0.38905
1181.87 246.386 -3.991402 1.38265 -0.13963 0.38828
1181.87 246.386 -3.792068 1.38165 -0.13934 0.38751
1181.87 246.386 -3.592735 1.38095 -0.13905 0.38689
1181.87 246.386 -3.393402 1.38026 -0.13876 0.38628
1181.87 246.386 -3.194068 1.37954 -0.13848 0.38558
1181.87 246.386 -2.994735 1.37878 -0.13819 0.38477
1181.87 246.386 -2.795401 1.37802 -0.1379 0.38396
1181.87 246.386 -2.596068 1.37726 -0.13762 0.38315
1181.87 246.386 -2.396735 1.3765 -0.13733 0.38234
1181.87 246.386 -2.197402 1.37574 -0.13704 0.38154
1181.87 246.386 -1.998068 1.37498 -0.13676 0.38073
1181.87 246.386 -1.798735 1.37423 -0.13647 0.37992
1181.87 246.386 -1.599402 1.37347 -0.13618 0.37911
1181.87 246.386 -1.400068 1.37271 -0.1359 0.3783
1181.87 246.386 -1.200735 1.37195 -0.13561 0.3775
1181.87 246.386 -1.001402 1.3712 -0.13532 0.37669
1181.87 246.386 -0.8020682 1.37044 -0.13504 0.37588
1181.87 246.386 -0.6027349 1.36968 -0.13475 0.37507
1181.87 246.386 -0.4034016 1.36892 -0.13446 0.37427
1181.87 246.386 -0.2040682 1.36817 -0.13418 0.37346
1181.87 246.386 -0.0047349 1.36724 -0.13374 0.37287
1181.87 246.386 0.1945984 1.36623 -0.13325 0.37237
1181.87 246.386 0.3939318 1.36523 -0.13275 0.37186
1181.87 246.386 0.5932651 1.36422 -0.13226 0.37136
1181.87 246.386 0.7925984 1.36322 -0.13176 0.37086
1181.87 246.386 0.9919318 1.36221 -0.13127 0.37036
1181.87 246.386 1.191265 1.36121 -0.13077 0.36986
1181.87 246.386 1.390598 1.3602 -0.13027 0.36936
1181.87 246.386 1.589932 1.3592 -0.12978 0.36886
1181.87 246.386 1.789265 1.35819 -0.12928 0.36836
1181.87 246.386 1.988598 1.35715 -0.12875 0.36786
1181.87 246.386 2.187932 1.35608 -0.12819 0.36735
1181.87 246.386 2.387265 1.355 -0.12763 0.36685
1181.87 246.386 2.586599 1.35393 -0.12707 0.36634
1181.87 246.386 2.785932 1.35286 -0.12651 0.36584
1181.87 246.386 2.985265 1.35179 -0.12595 0.36533
1181.87 246.386 3.184598 1.35087 -0.1255 0.36489
1181.87 246.386 3.383932 1.35002 -0.1251 0.36449
1181.87 246.386 3.583265 1.34918 -0.12471 0.36409
1181.87 246.386 3.782599 1.34834 -0.12432 0.36369
1181.87 246.386 3.981932 1.3476 -0.12397 0.36326
1181.87 246.386 4.181265 1.34688 -0.12362 0.36282
1181.87 246.386 4.380599 1.34616 -0.12328 0.36239
1181.87 246.386 4.579932 1.34544 -0.12294 0.36195
1181.87 246.386 4.779265 1.34473 -0.1226 0.36152
1181.87 246.386 4.978599 1.34401 -0.12226 0.36108
1181.87 246.386 5.177932 1.3433 -0.12192 0.36065
1181.87 246.386 5.377265 1.34286 -0.12166 0.36013
1181.87 246.386 5.576598 1.34242 -0.1214 0.35961
1181.87 246.386 5.775932 1.34198 -0.12114 0.35909
1181.87 246.386 5.975265 1.34153 -0.12088 0.35858
1181.87 246.386 6.174598 1.34109 -0.12062 0.35806
1181.87 246.386 6.373932 1.34065 -0.12036 0.35754