#++++++++++++++++++++++++++++++++++++++++++++++++++++++++++++++++++++++++++++++++++++++++++++++++++++++++++++++++++++++++++++++++++++++
#
#   HiLiftPW-2 Velocity DATA SUBMITTAL FORM Case 1 (Version 1), March 2013
#
#   CASE 1 is a required grid convergence study at high-Reynolds number conditions.
#   Config 2 (without Slat Tracks or Flap Track Fairings) should be used.
#   Two ALPHAs (7 and 16 deg) are required.
#   Four additional ALPHAs (18.5, 20, 21, and 22.4) are optional.
#   This case should be run FULLY TURBULENT (no forced transition).
#
#   This data file only asks for a subset of information to be reported: AoA=7, 18.5, and 21 on medium and fine grids
#
#       NOMENCLATURE:
#              ALPHA:	Angle of attack, deg.
#                 FT:   Fully Turbulent
#                 TR:   Transition specified or computed
#              X,Y,Z:   Cartesian coordinates, in mm
#             u/Uinf:   Velocity component in X-direction relative to freestream
#             v/Uinf:   Velocity component in Y-direction relative to freestream
#             w/Uinf:   Velocity component in Z-direction relative to freestream
#
#                XXX:	Participant ID (To be assigned by HiLiftPW-1 workshop committee)
#
#    FLOW CONDITIONS:
#                 Mach Number: 0.175
#             Reynolds Number: 15.1 million (based on MAC)
#             Freestream Temp: 114.0 K (205.2 R)
#  Freestream Static Pressure: 295000 Pa (42.7861 psi)
#
#              NOTES: 1. All numerical data fields can be free-formatted
#                     2. Please use at least 3 decimal places in the numerical values for velocity
#                     3. If optional data is NOT provided, please fill data fields with a numerical value of "-999" 
#                     4. Results are requested for both medium and fine grids
#                     5. There are no experimental velocity data for these high-Re conditions
#
#++++++++++++++++++++++++++++++++++++++++++++++++++++++++++++++++++++++++++++++++++++++++++++++++++++++++++++++++++++++++++++++++++++++

TITLE = "005.1"

VARIABLES = "X" "Y" "Z" "u/Uinf" "v/Uinf" "w/Uinf"

#-----------------------------------------------------------------------------------
# ALPHA 7, medium grid:
#-----------------------------------------------------------------------------------
ZONE T="005.1 case1 a7 medium, p1, wB, line 1"
# extract along Z at X=1162.58, Y=246.386, from wing upper surface to at least 59mm high above surface
 1.162579956E+03 2.463860016E+02 -6.002868652E+01 5.441750884E-01 4.363709316E-02 9.651204348E-01
 1.162579956E+03 2.463860016E+02 -5.982868576E+01 5.733870268E-01 3.963261843E-02 1.001408339E+00
 1.162579956E+03 2.463860016E+02 -5.962868500E+01 5.960405469E-01 3.603802621E-02 1.024900913E+00
 1.162579956E+03 2.463860016E+02 -5.942868423E+01 6.143221259E-01 3.277010843E-02 1.039350629E+00
 1.162579956E+03 2.463860016E+02 -5.922868347E+01 6.301165819E-01 2.965702862E-02 1.049140573E+00
 1.162579956E+03 2.463860016E+02 -5.902868652E+01 6.441208720E-01 2.662879601E-02 1.054942966E+00
 1.162579956E+03 2.463860016E+02 -5.882868576E+01 6.549631953E-01 2.297968604E-02 1.054701805E+00
 1.162579956E+03 2.463860016E+02 -5.862868500E+01 6.661486626E-01 1.916321181E-02 1.054331541E+00
 1.162579956E+03 2.463860016E+02 -5.842868423E+01 6.747934222E-01 1.658973470E-02 1.050786734E+00
 1.162579956E+03 2.463860016E+02 -5.822868347E+01 6.827625036E-01 1.338658761E-02 1.046289682E+00
 1.162579956E+03 2.463860016E+02 -5.802868652E+01 6.902883053E-01 9.834295139E-03 1.041217089E+00
 1.162579956E+03 2.463860016E+02 -5.782868576E+01 6.973016262E-01 6.111091003E-03 1.035346508E+00
 1.162579956E+03 2.463860016E+02 -5.762868500E+01 7.036871314E-01 2.281190595E-03 1.029157877E+00
 1.162579956E+03 2.463860016E+02 -5.742868423E+01 7.099002004E-01 -1.707024407E-03 1.022537589E+00
 1.162579956E+03 2.463860016E+02 -5.722868347E+01 7.154883146E-01 -5.843691528E-03 1.015769839E+00
 1.162579956E+03 2.463860016E+02 -5.702868652E+01 7.209551334E-01 -1.019403990E-02 1.008639455E+00
 1.162579956E+03 2.463860016E+02 -5.682868576E+01 7.260468602E-01 -1.458681840E-02 1.001641631E+00
 1.162579956E+03 2.463860016E+02 -5.662868500E+01 7.307410836E-01 -1.931816898E-02 9.943277240E-01
 1.162579956E+03 2.463860016E+02 -5.642868423E+01 7.354862094E-01 -2.399985120E-02 9.870797992E-01
 1.162579956E+03 2.463860016E+02 -5.622868347E+01 7.396613955E-01 -2.895552851E-02 9.798891544E-01
 1.162579956E+03 2.463860016E+02 -5.602868652E+01 7.436318398E-01 -3.420718014E-02 9.724573493E-01
 1.162579956E+03 2.463860016E+02 -5.582868576E+01 7.476641536E-01 -3.937136382E-02 9.651327729E-01
 1.162579956E+03 2.463860016E+02 -5.562868500E+01 7.512528300E-01 -4.474010691E-02 9.579646587E-01
 1.162579956E+03 2.463860016E+02 -5.542868423E+01 7.545703053E-01 -5.041856319E-02 9.507124424E-01
 1.162579956E+03 2.463860016E+02 -5.522868347E+01 7.578811646E-01 -5.622120202E-02 9.433268309E-01
 1.162579956E+03 2.463860016E+02 -5.502868652E+01 7.611892223E-01 -6.180067733E-02 9.361867905E-01
 1.162579956E+03 2.463860016E+02 -5.482868576E+01 7.638422847E-01 -6.782396883E-02 9.292072058E-01
 1.162579956E+03 2.463860016E+02 -5.462868500E+01 7.665199637E-01 -7.406895608E-02 9.220378399E-01
 1.162579956E+03 2.463860016E+02 -5.442868423E+01 7.691981196E-01 -8.030103892E-02 9.148794413E-01
 1.162579956E+03 2.463860016E+02 -5.422868347E+01 7.718338370E-01 -8.634772152E-02 9.079030156E-01
 1.162579956E+03 2.463860016E+02 -5.402868652E+01 7.738533020E-01 -9.273502976E-02 9.010792971E-01
 1.162579956E+03 2.463860016E+02 -5.382868576E+01 7.758761644E-01 -9.935855120E-02 8.941032887E-01
 1.162579956E+03 2.463860016E+02 -5.362868500E+01 7.779672146E-01 -1.060387716E-01 8.870933056E-01
 1.162579956E+03 2.463860016E+02 -5.342868423E+01 7.800034881E-01 -1.124323905E-01 8.802660704E-01
 1.162579956E+03 2.463860016E+02 -5.322868347E+01 7.814721465E-01 -1.190690249E-01 8.735163212E-01
 1.162579956E+03 2.463860016E+02 -5.302868652E+01 7.827665210E-01 -1.259187758E-01 8.667051792E-01
 1.162579956E+03 2.463860016E+02 -5.282868576E+01 7.842453718E-01 -1.329707950E-01 8.598105907E-01
 1.162579956E+03 2.463860016E+02 -5.262868500E+01 7.855756879E-01 -1.397589445E-01 8.530340195E-01
 1.162579956E+03 2.463860016E+02 -5.242868423E+01 7.866029739E-01 -1.465734392E-01 8.463009596E-01
 1.162579956E+03 2.463860016E+02 -5.222868347E+01 7.871260047E-01 -1.535761207E-01 8.395575285E-01
 1.162579956E+03 2.463860016E+02 -5.202868652E+01 7.877427340E-01 -1.609017849E-01 8.326743245E-01
 1.162579956E+03 2.463860016E+02 -5.182868576E+01 7.882866263E-01 -1.681282520E-01 8.258230090E-01
 1.162579956E+03 2.463860016E+02 -5.162868500E+01 7.888335586E-01 -1.751239896E-01 8.190889955E-01
 1.162579956E+03 2.463860016E+02 -5.142868423E+01 7.887177467E-01 -1.819758117E-01 8.121934533E-01
 1.162579956E+03 2.463860016E+02 -5.122868347E+01 7.884933949E-01 -1.890306473E-01 8.051279783E-01
 1.162579956E+03 2.463860016E+02 -5.102868652E+01 7.882941365E-01 -1.962458640E-01 7.980268002E-01
 1.162579956E+03 2.463860016E+02 -5.082868576E+01 7.881473899E-01 -2.031206787E-01 7.911068797E-01
 1.162579956E+03 2.463860016E+02 -5.062868500E+01 7.884231210E-01 -2.085830271E-01 7.840213180E-01
 1.162579956E+03 2.463860016E+02 -5.042868423E+01 7.886207104E-01 -2.135312408E-01 7.765936852E-01
 1.162579956E+03 2.463860016E+02 -5.022868347E+01 7.884258628E-01 -2.190683335E-01 7.689732909E-01
 1.162579956E+03 2.463860016E+02 -5.002868652E+01 7.888029218E-01 -2.238796353E-01 7.616965175E-01
 1.162579956E+03 2.463860016E+02 -4.982868576E+01 7.919960618E-01 -2.247907817E-01 7.547823787E-01
 1.162579956E+03 2.463860016E+02 -4.962868500E+01 7.956321836E-01 -2.241081297E-01 7.473177910E-01
 1.162579956E+03 2.463860016E+02 -4.942868423E+01 7.986302376E-01 -2.238503546E-01 7.394755483E-01
 1.162579956E+03 2.463860016E+02 -4.922868347E+01 8.033163548E-01 -2.226648480E-01 7.327136397E-01
 1.162579956E+03 2.463860016E+02 -4.902868652E+01 8.174734116E-01 -2.110937387E-01 7.280981541E-01
 1.162579956E+03 2.463860016E+02 -4.882868576E+01 8.288346529E-01 -2.009274662E-01 7.217177749E-01
 1.162579956E+03 2.463860016E+02 -4.862868500E+01 8.423553109E-01 -1.896439344E-01 7.166821361E-01
 1.162579956E+03 2.463860016E+02 -4.842868423E+01 8.673083782E-01 -1.692497581E-01 7.159276009E-01
 1.162579956E+03 2.463860016E+02 -4.822868347E+01 8.926359415E-01 -1.462984234E-01 7.137114406E-01
 1.162579956E+03 2.463860016E+02 -4.802868652E+01 9.199963212E-01 -1.233601347E-01 7.134207487E-01
 1.162579956E+03 2.463860016E+02 -4.782868576E+01 9.593377709E-01 -9.635858238E-02 7.204869986E-01
 1.162579956E+03 2.463860016E+02 -4.762868500E+01 9.985736609E-01 -6.817484647E-02 7.265822291E-01
 1.162579956E+03 2.463860016E+02 -4.742868423E+01 1.039927721E+00 -4.667130485E-02 7.386135459E-01
 1.162579956E+03 2.463860016E+02 -4.722868347E+01 1.084733486E+00 -2.530908957E-02 7.530547380E-01
 1.162579956E+03 2.463860016E+02 -4.702868652E+01 1.123140812E+00 -1.462765317E-02 7.690286040E-01
 1.162579956E+03 2.463860016E+02 -4.682868576E+01 1.161023140E+00 -8.096770383E-03 7.866461873E-01
 1.162579956E+03 2.463860016E+02 -4.662868500E+01 1.187989473E+00 -1.200533472E-02 8.017898798E-01
 1.162579956E+03 2.463860016E+02 -4.642868423E+01 1.208658695E+00 -1.889190637E-02 8.136200309E-01
 1.162579956E+03 2.463860016E+02 -4.622868347E+01 1.223634601E+00 -2.697075903E-02 8.217350245E-01
 1.162579956E+03 2.463860016E+02 -4.602868652E+01 1.232687235E+00 -3.273300454E-02 8.251352906E-01
 1.162579956E+03 2.463860016E+02 -4.582868576E+01 1.239812613E+00 -3.750127181E-02 8.267991543E-01
 1.162579956E+03 2.463860016E+02 -4.562868500E+01 1.243849874E+00 -4.049843550E-02 8.255146742E-01
 1.162579956E+03 2.463860016E+02 -4.542868423E+01 1.247307539E+00 -4.315248132E-02 8.237091303E-01
 1.162579956E+03 2.463860016E+02 -4.522868347E+01 1.249168038E+00 -4.475398734E-02 8.204880357E-01
 1.162579956E+03 2.463860016E+02 -4.502868652E+01 1.249931693E+00 -4.561841115E-02 8.163869381E-01
 1.162579956E+03 2.463860016E+02 -4.482868576E+01 1.250898361E+00 -4.658012092E-02 8.124901056E-01
 1.162579956E+03 2.463860016E+02 -4.462868500E+01 1.251707911E+00 -4.725204036E-02 8.082379699E-01
 1.162579956E+03 2.463860016E+02 -4.442868423E+01 1.252380610E+00 -4.784594476E-02 8.038529158E-01
 1.162579956E+03 2.463860016E+02 -4.422868347E+01 1.253623009E+00 -4.869326204E-02 8.001154065E-01
 1.162579956E+03 2.463860016E+02 -4.402868652E+01 1.255269170E+00 -4.972969741E-02 7.966964841E-01
 1.162579956E+03 2.463860016E+02 -4.382868576E+01 1.256880879E+00 -5.074327067E-02 7.932786942E-01
 1.162579956E+03 2.463860016E+02 -4.362868500E+01 1.258868337E+00 -5.195879564E-02 7.903155088E-01
 1.162579956E+03 2.463860016E+02 -4.342868423E+01 1.261194825E+00 -5.336471647E-02 7.877840400E-01
 1.162579956E+03 2.463860016E+02 -4.322868347E+01 1.263460159E+00 -5.474002659E-02 7.853177190E-01
 1.162579956E+03 2.463860016E+02 -4.302868652E+01 1.265792489E+00 -5.614481494E-02 7.829675078E-01
 1.162579956E+03 2.463860016E+02 -4.282868576E+01 1.268219471E+00 -5.763261765E-02 7.809290290E-01
 1.162579956E+03 2.463860016E+02 -4.262868500E+01 1.270564079E+00 -5.907779932E-02 7.787783742E-01
 1.162579956E+03 2.463860016E+02 -4.242868423E+01 1.272923231E+00 -6.054012477E-02 7.764396071E-01
 1.162579956E+03 2.463860016E+02 -4.222868347E+01 1.275120616E+00 -6.191875413E-02 7.741432786E-01
 1.162579956E+03 2.463860016E+02 -4.202868652E+01 1.277363539E+00 -6.333025545E-02 7.718044519E-01
 1.162579956E+03 2.463860016E+02 -4.182868576E+01 1.279535532E+00 -6.470712274E-02 7.694045901E-01
 1.162579956E+03 2.463860016E+02 -4.162868500E+01 1.281645656E+00 -6.604894251E-02 7.670301795E-01
 1.162579956E+03 2.463860016E+02 -4.142868423E+01 1.283693552E+00 -6.735129654E-02 7.646665573E-01
 1.162579956E+03 2.463860016E+02 -4.122868347E+01 1.285572767E+00 -6.855258346E-02 7.622777820E-01
 1.162579956E+03 2.463860016E+02 -4.102868652E+01 1.287560582E+00 -6.982000917E-02 7.599257827E-01
 1.162579956E+03 2.463860016E+02 -4.082868576E+01 1.289451122E+00 -7.101982087E-02 7.577233315E-01
 1.162579956E+03 2.463860016E+02 -4.062868500E+01 1.291198134E+00 -7.213195413E-02 7.554963231E-01
 1.162579956E+03 2.463860016E+02 -4.042868423E+01 1.292966366E+00 -7.326254994E-02 7.531797290E-01
 1.162579956E+03 2.463860016E+02 -4.022868347E+01 1.294656992E+00 -7.435922325E-02 7.507473826E-01
 1.162579956E+03 2.463860016E+02 -4.002868652E+01 1.296315908E+00 -7.543171942E-02 7.483171821E-01
 1.162579956E+03 2.463860016E+02 -3.982868576E+01 1.297937632E+00 -7.648995519E-02 7.458680868E-01
 1.162579956E+03 2.463860016E+02 -3.962868500E+01 1.299520373E+00 -7.754099369E-02 7.434184551E-01
 1.162579956E+03 2.463860016E+02 -3.942868423E+01 1.301071644E+00 -7.856707275E-02 7.409747243E-01
 1.162579956E+03 2.463860016E+02 -3.922868347E+01 1.302574754E+00 -7.956977934E-02 7.385491133E-01
 1.162579956E+03 2.463860016E+02 -3.902868652E+01 1.304102659E+00 -8.059138805E-02 7.361738086E-01
 1.162579956E+03 2.463860016E+02 -3.882868576E+01 1.305461049E+00 -8.150868863E-02 7.338148952E-01
 1.162579956E+03 2.463860016E+02 -3.862868500E+01 1.306956410E+00 -8.249859512E-02 7.315686345E-01
 1.162579956E+03 2.463860016E+02 -3.842868423E+01 1.308445811E+00 -8.347753435E-02 7.294006944E-01
 1.162579956E+03 2.463860016E+02 -3.822868347E+01 1.309914589E+00 -8.444470912E-02 7.272320390E-01
 1.162579956E+03 2.463860016E+02 -3.802868652E+01 1.311056137E+00 -8.525690436E-02 7.246323824E-01
 1.162579956E+03 2.463860016E+02 -3.782868576E+01 1.312098980E+00 -8.601526916E-02 7.220091820E-01
 1.162579956E+03 2.463860016E+02 -3.762868500E+01 1.313307166E+00 -8.684819937E-02 7.196120620E-01
 1.162579956E+03 2.463860016E+02 -3.742868423E+01 1.314482808E+00 -8.766305447E-02 7.172141671E-01
 1.162579956E+03 2.463860016E+02 -3.722868347E+01 1.315602779E+00 -8.844692260E-02 7.148435116E-01
 1.162579956E+03 2.463860016E+02 -3.702868652E+01 1.316723228E+00 -8.923500776E-02 7.124077082E-01
 1.162579956E+03 2.463860016E+02 -3.682868576E+01 1.317788601E+00 -8.999632299E-02 7.100122571E-01
 1.162579956E+03 2.463860016E+02 -3.662868500E+01 1.318809986E+00 -9.072748572E-02 7.076269388E-01
 1.162579956E+03 2.463860016E+02 -3.642868423E+01 1.319812417E+00 -9.144508094E-02 7.052296996E-01
 1.162579956E+03 2.463860016E+02 -3.622868347E+01 1.320821166E+00 -9.217187762E-02 7.028707266E-01
 1.162579956E+03 2.463860016E+02 -3.602868652E+01 1.321802020E+00 -9.287961572E-02 7.005519867E-01
 1.162579956E+03 2.463860016E+02 -3.582868576E+01 1.322645903E+00 -9.350116551E-02 6.981979609E-01
 1.162579956E+03 2.463860016E+02 -3.562868500E+01 1.323510170E+00 -9.413695335E-02 6.958548427E-01
 1.162579956E+03 2.463860016E+02 -3.542868423E+01 1.324446917E+00 -9.481065720E-02 6.935983896E-01
 1.162579956E+03 2.463860016E+02 -3.522868347E+01 1.325325966E+00 -9.544629604E-02 6.913941503E-01
 1.162579956E+03 2.463860016E+02 -3.502868652E+01 1.326075435E+00 -9.600017220E-02 6.891571879E-01
 1.162579956E+03 2.463860016E+02 -3.482868576E+01 1.326816440E+00 -9.654805809E-02 6.869156957E-01
 1.162579956E+03 2.463860016E+02 -3.462868500E+01 1.327591419E+00 -9.712010622E-02 6.846924424E-01
 1.162579956E+03 2.463860016E+02 -3.442868423E+01 1.328311920E+00 -9.766419977E-02 6.823896766E-01
 1.162579956E+03 2.463860016E+02 -3.422868347E+01 1.329011679E+00 -9.818934649E-02 6.801294684E-01
 1.162579956E+03 2.463860016E+02 -3.402868652E+01 1.329681993E+00 -9.869322181E-02 6.778544188E-01
 1.162579956E+03 2.463860016E+02 -3.382868576E+01 1.330331802E+00 -9.918215871E-02 6.755688787E-01
 1.162579956E+03 2.463860016E+02 -3.362868500E+01 1.330981612E+00 -9.967109561E-02 6.732832789E-01
 1.162579956E+03 2.463860016E+02 -3.342868423E+01 1.331591010E+00 -1.001421660E-01 6.710286736E-01
 1.162579956E+03 2.463860016E+02 -3.322868347E+01 1.332151890E+00 -1.005928814E-01 6.687526703E-01
 1.162579956E+03 2.463860016E+02 -3.302868652E+01 1.332675457E+00 -1.010212004E-01 6.665210724E-01
 1.162579956E+03 2.463860016E+02 -3.282868576E+01 1.333181977E+00 -1.014370993E-01 6.642813087E-01
 1.162579956E+03 2.463860016E+02 -3.262868500E+01 1.333662987E+00 -1.018334553E-01 6.620252132E-01
 1.162579956E+03 2.463860016E+02 -3.242868423E+01 1.334117174E+00 -1.022138447E-01 6.597707868E-01
 1.162579956E+03 2.463860016E+02 -3.222868347E+01 1.334551215E+00 -1.025843397E-01 6.575268507E-01
 1.162579956E+03 2.463860016E+02 -3.202868652E+01 1.335017800E+00 -1.029786691E-01 6.552989483E-01
 1.162579956E+03 2.463860016E+02 -3.182868576E+01 1.335477114E+00 -1.033651605E-01 6.531158686E-01
 1.162579956E+03 2.463860016E+02 -3.162868500E+01 1.335925221E+00 -1.037395671E-01 6.510020494E-01
 1.162579956E+03 2.463860016E+02 -3.142868423E+01 1.336362839E+00 -1.041052341E-01 6.489000320E-01
 1.162579956E+03 2.463860016E+02 -3.122868538E+01 1.336654902E+00 -1.043728143E-01 6.468065977E-01
 1.162579956E+03 2.463860016E+02 -3.102868462E+01 1.336946964E+00 -1.046404019E-01 6.447131038E-01
 1.162579956E+03 2.463860016E+02 -3.082868576E+01 1.337238908E+00 -1.049079821E-01 6.426196694E-01
 1.162579956E+03 2.463860016E+02 -3.062868500E+01 1.337544918E+00 -1.051857620E-01 6.405329108E-01
 1.162579956E+03 2.463860016E+02 -3.042868423E+01 1.337882876E+00 -1.054870337E-01 6.384616494E-01
 1.162579956E+03 2.463860016E+02 -3.022868538E+01 1.338223815E+00 -1.057899818E-01 6.363903284E-01
 1.162579956E+03 2.463860016E+02 -3.002868462E+01 1.338474870E+00 -1.060369685E-01 6.343557835E-01
 1.162579956E+03 2.463860016E+02 -2.982868576E+01 1.338706613E+00 -1.062732413E-01 6.323059797E-01
 1.162579956E+03 2.463860016E+02 -2.962868500E+01 1.338931441E+00 -1.065042093E-01 6.302531958E-01
 1.162579956E+03 2.463860016E+02 -2.942868423E+01 1.339119554E+00 -1.067070514E-01 6.281841397E-01
 1.162579956E+03 2.463860016E+02 -2.922868538E+01 1.339307547E+00 -1.069099009E-01 6.261150837E-01
 1.162579956E+03 2.463860016E+02 -2.902868462E+01 1.339495540E+00 -1.071127504E-01 6.240460873E-01
 1.162579956E+03 2.463860016E+02 -2.882868576E+01 1.339683652E+00 -1.073155999E-01 6.219770312E-01
 1.162579956E+03 2.463860016E+02 -2.862868500E+01 1.339825273E+00 -1.075005159E-01 6.199145913E-01
 1.162579956E+03 2.463860016E+02 -2.842868423E+01 1.339939952E+00 -1.076749787E-01 6.178582311E-01
 1.162579956E+03 2.463860016E+02 -2.822868538E+01 1.340054631E+00 -1.078494340E-01 6.158018112E-01
 1.162579956E+03 2.463860016E+02 -2.802868462E+01 1.340171456E+00 -1.080202237E-01 6.138623953E-01
 1.162579956E+03 2.463860016E+02 -2.782868576E+01 1.340288401E+00 -1.081906259E-01 6.119350195E-01
 1.162579956E+03 2.463860016E+02 -2.762868500E+01 1.340405464E+00 -1.083610281E-01 6.100075841E-01
 1.162579956E+03 2.463860016E+02 -2.742868423E+01 1.340497732E+00 -1.085112989E-01 6.080709100E-01
 1.162579956E+03 2.463860016E+02 -2.722868538E+01 1.340574503E+00 -1.086488590E-01 6.061283946E-01
 1.162579956E+03 2.463860016E+02 -2.702868462E+01 1.340571761E+00 -1.087389886E-01 6.042085886E-01
 1.162579956E+03 2.463860016E+02 -2.682868576E+01 1.340543151E+00 -1.088137403E-01 6.022961736E-01
 1.162579956E+03 2.463860016E+02 -2.662868500E+01 1.340514421E+00 -1.088884845E-01 6.003837585E-01
 1.162579956E+03 2.463860016E+02 -2.642868423E+01 1.340501904E+00 -1.089729294E-01 5.984672308E-01
 1.162579956E+03 2.463860016E+02 -2.622868538E+01 1.340554714E+00 -1.091007516E-01 5.965758562E-01
 1.162579956E+03 2.463860016E+02 -2.602868462E+01 1.340609789E+00 -1.092268229E-01 5.946966410E-01
 1.162579956E+03 2.463860016E+02 -2.582868576E+01 1.340664864E+00 -1.093528941E-01 5.928174257E-01
 1.162579956E+03 2.463860016E+02 -2.562868500E+01 1.340729475E+00 -1.094814539E-01 5.910434127E-01
 1.162579956E+03 2.463860016E+02 -2.542868423E+01 1.340771198E+00 -1.095955819E-01 5.893082619E-01
 1.162579956E+03 2.463860016E+02 -2.522868538E+01 1.340740919E+00 -1.096676439E-01 5.875940919E-01
 1.162579956E+03 2.463860016E+02 -2.502868462E+01 1.340710640E+00 -1.097397134E-01 5.858798623E-01
 1.162579956E+03 2.463860016E+02 -2.482868576E+01 1.340626597E+00 -1.097732186E-01 5.841099024E-01
 1.162579956E+03 2.463860016E+02 -2.462868500E+01 1.340523243E+00 -1.097954586E-01 5.823111534E-01
 1.162579956E+03 2.463860016E+02 -2.442868423E+01 1.340420008E+00 -1.098176986E-01 5.805124044E-01
 1.162579956E+03 2.463860016E+02 -2.422868538E+01 1.340316653E+00 -1.098399386E-01 5.787136555E-01
 1.162579956E+03 2.463860016E+02 -2.402868462E+01 1.340213418E+00 -1.098621786E-01 5.769149065E-01
 1.162579956E+03 2.463860016E+02 -2.382868576E+01 1.340110064E+00 -1.098844185E-01 5.751161575E-01
 1.162579956E+03 2.463860016E+02 -2.362868500E+01 1.340006828E+00 -1.099066585E-01 5.733174086E-01
 1.162579956E+03 2.463860016E+02 -2.342868423E+01 1.339876413E+00 -1.099233255E-01 5.715588927E-01
 1.162579956E+03 2.463860016E+02 -2.322868538E+01 1.339705110E+00 -1.099222749E-01 5.697942972E-01
 1.162579956E+03 2.463860016E+02 -2.302868462E+01 1.339533210E+00 -1.099214926E-01 5.680276752E-01
 1.162579956E+03 2.463860016E+02 -2.282868576E+01 1.339373827E+00 -1.099272817E-01 5.663020611E-01
 1.162579956E+03 2.463860016E+02 -2.262868500E+01 1.339244008E+00 -1.099487320E-01 5.646739006E-01
 1.162579956E+03 2.463860016E+02 -2.242868423E+01 1.339114189E+00 -1.099701747E-01 5.630457997E-01
 1.162579956E+03 2.463860016E+02 -2.222868538E+01 1.338984370E+00 -1.099916250E-01 5.614176393E-01
 1.162579956E+03 2.463860016E+02 -2.202868462E+01 1.338854551E+00 -1.100130752E-01 5.597895384E-01
 1.162579956E+03 2.463860016E+02 -2.182868576E+01 1.338697553E+00 -1.100065708E-01 5.581536293E-01
 1.162579956E+03 2.463860016E+02 -2.162868500E+01 1.338536739E+00 -1.099961028E-01 5.565165877E-01
 1.162579956E+03 2.463860016E+02 -2.142868423E+01 1.338355780E+00 -1.099734828E-01 5.548901558E-01
 1.162579956E+03 2.463860016E+02 -2.122868538E+01 1.338105679E+00 -1.099093258E-01 5.533000231E-01
 1.162579956E+03 2.463860016E+02 -2.102868462E+01 1.337855577E+00 -1.098451614E-01 5.517098308E-01
 1.162579956E+03 2.463860016E+02 -2.082868576E+01 1.337605596E+00 -1.097810045E-01 5.501196980E-01
 1.162579956E+03 2.463860016E+02 -2.062868500E+01 1.337355494E+00 -1.097168475E-01 5.485295057E-01
 1.162579956E+03 2.463860016E+02 -2.042868423E+01 1.337108254E+00 -1.096515059E-01 5.469492674E-01
 1.162579956E+03 2.463860016E+02 -2.022868538E+01 1.336878657E+00 -1.095995903E-01 5.453851223E-01
 1.162579956E+03 2.463860016E+02 -2.002868462E+01 1.336669445E+00 -1.095670760E-01 5.438230038E-01
 1.162579956E+03 2.463860016E+02 -1.982868576E+01 1.336479306E+00 -1.095457152E-01 5.422514677E-01
 1.162579956E+03 2.463860016E+02 -1.962868500E+01 1.336289167E+00 -1.095243543E-01 5.406799912E-01
 1.162579956E+03 2.463860016E+02 -1.942868423E+01 1.336105704E+00 -1.095068455E-01 5.391275883E-01
 1.162579956E+03 2.463860016E+02 -1.922868538E+01 1.335946560E+00 -1.095024943E-01 5.377020240E-01
 1.162579956E+03 2.463860016E+02 -1.902868462E+01 1.335728049E+00 -1.094628796E-01 5.363104343E-01
 1.162579956E+03 2.463860016E+02 -1.882868576E+01 1.335480690E+00 -1.094079912E-01 5.348569155E-01
 1.162579956E+03 2.463860016E+02 -1.862868500E+01 1.335230947E+00 -1.093517765E-01 5.333979130E-01
 1.162579956E+03 2.463860016E+02 -1.842868423E+01 1.334979534E+00 -1.092936844E-01 5.319385529E-01
 1.162579956E+03 2.463860016E+02 -1.822868538E+01 1.334704041E+00 -1.092066169E-01 5.304736495E-01
 1.162579956E+03 2.463860016E+02 -1.802868462E+01 1.334428430E+00 -1.091195494E-01 5.290086865E-01
 1.162579956E+03 2.463860016E+02 -1.782868576E+01 1.334152937E+00 -1.090324819E-01 5.275437236E-01
 1.162579956E+03 2.463860016E+02 -1.762868500E+01 1.333877325E+00 -1.089454144E-01 5.260787606E-01
 1.162579956E+03 2.463860016E+02 -1.742868423E+01 1.333601832E+00 -1.088583469E-01 5.246137977E-01
 1.162579956E+03 2.463860016E+02 -1.722868538E+01 1.333320260E+00 -1.087732613E-01 5.231315494E-01
 1.162579956E+03 2.463860016E+02 -1.702868462E+01 1.333037972E+00 -1.086884364E-01 5.216469765E-01
 1.162579956E+03 2.463860016E+02 -1.682868576E+01 1.332755566E+00 -1.086036041E-01 5.201624632E-01
 1.162579956E+03 2.463860016E+02 -1.662868500E+01 1.332402110E+00 -1.084755883E-01 5.187328458E-01
 1.162579956E+03 2.463860016E+02 -1.642868423E+01 1.332041979E+00 -1.083445251E-01 5.173099637E-01
 1.162579956E+03 2.463860016E+02 -1.622868538E+01 1.331705093E+00 -1.082425788E-01 5.158920884E-01
 1.162579956E+03 2.463860016E+02 -1.602868462E+01 1.331368089E+00 -1.081406325E-01 5.144741535E-01
 1.162579956E+03 2.463860016E+02 -1.582868481E+01 1.331031203E+00 -1.080386862E-01 5.130562186E-01
 1.162579956E+03 2.463860016E+02 -1.562868500E+01 1.330694199E+00 -1.079367399E-01 5.116382837E-01
 1.162579956E+03 2.463860016E+02 -1.542868519E+01 1.330365300E+00 -1.078403443E-01 5.102399588E-01
 1.162579956E+03 2.463860016E+02 -1.522868443E+01 1.330078006E+00 -1.077729613E-01 5.089439154E-01
 1.162579956E+03 2.463860016E+02 -1.502868462E+01 1.329790711E+00 -1.077055782E-01 5.076478720E-01
 1.162579956E+03 2.463860016E+02 -1.482868481E+01 1.329503417E+00 -1.076381952E-01 5.063518286E-01
 1.162579956E+03 2.463860016E+02 -1.462868500E+01 1.329216242E+00 -1.075708121E-01 5.050557852E-01
 1.162579956E+03 2.463860016E+02 -1.442868519E+01 1.328928947E+00 -1.075034291E-01 5.037597418E-01
 1.162579956E+03 2.463860016E+02 -1.422868443E+01 1.328631997E+00 -1.074255705E-01 5.024654865E-01
 1.162579956E+03 2.463860016E+02 -1.402868462E+01 1.328248382E+00 -1.072816700E-01 5.012366772E-01
 1.162579956E+03 2.463860016E+02 -1.382868481E+01 1.327866793E+00 -1.071372777E-01 5.000129342E-01
 1.162579956E+03 2.463860016E+02 -1.362868500E+01 1.327485323E+00 -1.069928780E-01 4.987891018E-01
 1.162579956E+03 2.463860016E+02 -1.342868519E+01 1.327103734E+00 -1.068484783E-01 4.975653291E-01
 1.162579956E+03 2.463860016E+02 -1.322868443E+01 1.326722145E+00 -1.067040786E-01 4.963415265E-01
 1.162579956E+03 2.463860016E+02 -1.302868462E+01 1.326340556E+00 -1.065596864E-01 4.951177537E-01
 1.162579956E+03 2.463860016E+02 -1.282868481E+01 1.325959086E+00 -1.064152867E-01 4.938939512E-01
 1.162579956E+03 2.463860016E+02 -1.262868500E+01 1.325577497E+00 -1.062708870E-01 4.926701486E-01
 1.162579956E+03 2.463860016E+02 -1.242868519E+01 1.325184703E+00 -1.061207205E-01 4.914315343E-01
 1.162579956E+03 2.463860016E+02 -1.222868443E+01 1.324772120E+00 -1.059604287E-01 4.901668429E-01
 1.162579956E+03 2.463860016E+02 -1.202868462E+01 1.324359655E+00 -1.058001369E-01 4.889021814E-01
 1.162579956E+03 2.463860016E+02 -1.182868481E+01 1.323957920E+00 -1.056548655E-01 4.876379967E-01
 1.162579956E+03 2.463860016E+02 -1.162868500E+01 1.323567033E+00 -1.055247411E-01 4.863742888E-01
 1.162579956E+03 2.463860016E+02 -1.142868519E+01 1.323170900E+00 -1.053913608E-01 4.851171970E-01
 1.162579956E+03 2.463860016E+02 -1.122868443E+01 1.322722793E+00 -1.052255407E-01 4.839263856E-01
 1.162579956E+03 2.463860016E+02 -1.102868462E+01 1.322274566E+00 -1.050597131E-01 4.827355742E-01
 1.162579956E+03 2.463860016E+02 -1.082868481E+01 1.321826339E+00 -1.048938930E-01 4.815447330E-01
 1.162579956E+03 2.463860016E+02 -1.062868500E+01 1.321489811E+00 -1.047845334E-01 4.804123342E-01
 1.162579956E+03 2.463860016E+02 -1.042868519E+01 1.321208239E+00 -1.047049537E-01 4.793040752E-01
 1.162579956E+03 2.463860016E+02 -1.022868443E+01 1.320926785E+00 -1.046253666E-01 4.781958163E-01
 1.162579956E+03 2.463860016E+02 -1.002868462E+01 1.320645213E+00 -1.045457870E-01 4.770875573E-01
 1.162579956E+03 2.463860016E+02 -9.828684807E+00 1.320363641E+00 -1.044662073E-01 4.759792984E-01
 1.162579956E+03 2.463860016E+02 -9.628684998E+00 1.320082068E+00 -1.043866277E-01 4.748710394E-01
 1.162579956E+03 2.463860016E+02 -9.428685188E+00 1.319800496E+00 -1.043070480E-01 4.737628102E-01
 1.162579956E+03 2.463860016E+02 -9.228684425E+00 1.319518924E+00 -1.042274609E-01 4.726545215E-01
 1.162579956E+03 2.463860016E+02 -9.028684616E+00 1.319229484E+00 -1.041356921E-01 4.715478718E-01
 1.162579956E+03 2.463860016E+02 -8.828684807E+00 1.318931818E+00 -1.040316969E-01 4.704428017E-01
 1.162579956E+03 2.463860016E+02 -8.628684998E+00 1.318634272E+00 -1.039276943E-01 4.693377316E-01
 1.162579956E+03 2.463860016E+02 -8.428685188E+00 1.318318248E+00 -1.038112789E-01 4.682627916E-01
 1.162579956E+03 2.463860016E+02 -8.228684425E+00 1.317976356E+00 -1.036774144E-01 4.672302008E-01
 1.162579956E+03 2.463860016E+02 -8.028684616E+00 1.317634344E+00 -1.035435498E-01 4.661976099E-01
 1.162579956E+03 2.463860016E+02 -7.828684807E+00 1.317299008E+00 -1.034084707E-01 4.651787877E-01
 1.162579956E+03 2.463860016E+02 -7.628684998E+00 1.316964984E+00 -1.032731310E-01 4.641629457E-01
 1.162579956E+03 2.463860016E+02 -7.428684711E+00 1.316630960E+00 -1.031377912E-01 4.631471038E-01
 1.162579956E+03 2.463860016E+02 -7.228684902E+00 1.316296935E+00 -1.030024514E-01 4.621312618E-01
 1.162579956E+03 2.463860016E+02 -7.028684616E+00 1.315962911E+00 -1.028671116E-01 4.611153901E-01
 1.162579956E+03 2.463860016E+02 -6.828684807E+00 1.315628886E+00 -1.027317718E-01 4.600995481E-01
 1.162579956E+03 2.463860016E+02 -6.628684998E+00 1.315294862E+00 -1.025964245E-01 4.590837061E-01
 1.162579956E+03 2.463860016E+02 -6.428684711E+00 1.314968109E+00 -1.024726629E-01 4.580663741E-01
 1.162579956E+03 2.463860016E+02 -6.228684902E+00 1.314634800E+00 -1.023561358E-01 4.570274353E-01
 1.162579956E+03 2.463860016E+02 -6.028684616E+00 1.314280510E+00 -1.022284329E-01 4.559638202E-01
 1.162579956E+03 2.463860016E+02 -5.828684807E+00 1.313926101E+00 -1.021007299E-01 4.549001753E-01
 1.162579956E+03 2.463860016E+02 -5.628684998E+00 1.313571692E+00 -1.019730195E-01 4.538365602E-01
 1.162579956E+03 2.463860016E+02 -5.428684711E+00 1.313201785E+00 -1.018365026E-01 4.527945817E-01
 1.162579956E+03 2.463860016E+02 -5.228684902E+00 1.312786937E+00 -1.016746983E-01 4.518148005E-01
 1.162579956E+03 2.463860016E+02 -5.028684616E+00 1.312372088E+00 -1.015128866E-01 4.508350194E-01
 1.162579956E+03 2.463860016E+02 -4.828684807E+00 1.311957240E+00 -1.013510823E-01 4.498552382E-01
 1.162579956E+03 2.463860016E+02 -4.628684998E+00 1.311567426E+00 -1.012045071E-01 4.488897324E-01