
#++++++++++++++++++++++++++++++++++++++++++++++++++++++++++++++++++++++++++++++++++++++++++++++++++++++++++++++++++++++++++++++++++++++
#
#   HiLiftPW-2 Velocity DATA SUBMITTAL FORM Case 2b (Version 1), March 2013
#
#   CASE 2 is a required Reynolds number study at 8 different angles-of-attack each.
#   Config 4 (including Slat Tracks and Flap Track Fairings) should be used.
#   A comparable *Medium* mesh density from the Grid Convergence Study should be used.
#   The required parts of this case (Case 2a and 2b) should be run FULLY TURBULENT (no forced transition).
#   An optional part of this case (Case 2c) can be run with transition specified or predicted.
#
#   This data file only asks for a subset of information to be reported: AoA=7, 18.5, and 21 only.
#
#       NOMENCLATURE:
#              ALPHA:	Angle of attack, deg.
#                 FT:   Fully Turbulent
#                 TR:   Transition specified or computed
#              X,Y,Z:   Cartesian coordinates, in mm
#             u/Uinf:   Velocity component in X-direction relative to freestream
#             v/Uinf:   Velocity component in Y-direction relative to freestream
#             w/Uinf:   Velocity component in Z-direction relative to freestream
#
#                XXX:	Participant ID (To be assigned by HiLiftPW-1 workshop committee)
#
#    FLOW CONDITIONS CASE 2b:
#                 Mach Number: 0.175
#             Reynolds Number: 15.1 million (based on MAC)
#             Freestream Temp: 114.0 K (205.2 R)
#  Freestream Static Pressure: 295000 Pa (42.7861 psi)
#
#              NOTES: 1. All numerical data fields can be free-formatted
#                     2. Please use at least 3 decimal places in the numerical values for velocity
#                     3. If optional data is NOT provided, please fill data fields with a numerical value of "-999" 
#                     4. Results are requested for both medium and fine grids
#                     5. There are no experimental velocity data for these high-Re conditions
#
#++++++++++++++++++++++++++++++++++++++++++++++++++++++++++++++++++++++++++++++++++++++++++++++++++++++++++++++++++++++++++++++++++++++

TITLE = "024.2"

VARIABLES = "X" "Y" "Z" "u/Uinf" "v/Uinf" "w/Uinf"


ZONE T="024.2 case2b a7 medium, p1, wB, line1"
# extract along Z at X=1162.58, Y=246.386, from wing upper surface to at least 59mm high above surface
  1.16258e+03  2.46390e+02 -5.97745e+01  3.78741e-01  8.37532e-02  6.00750e-01
  1.16258e+03  2.46390e+02 -5.96474e+01  3.84593e-01  8.11357e-02  6.06791e-01
  1.16258e+03  2.46390e+02 -5.93929e+01  3.97307e-01  7.51969e-02  6.19999e-01
  1.16258e+03  2.46390e+02 -5.89437e+01  4.08372e-01  6.41681e-02  6.21162e-01
  1.16258e+03  2.46390e+02 -5.88438e+01  4.10650e-01  6.18070e-02  6.21695e-01
  1.16258e+03  2.46390e+02 -5.82217e+01  4.16739e-01  4.48635e-02  6.07273e-01
  1.16258e+03  2.46390e+02 -5.80732e+01  4.18381e-01  4.04125e-02  6.03746e-01
  1.16258e+03  2.46390e+02 -5.74790e+01  4.06448e-01  2.28269e-02  5.70824e-01
  1.16258e+03  2.46390e+02 -5.69754e+01  3.94783e-01  6.18925e-03  5.45591e-01
  1.16258e+03  2.46390e+02 -5.67593e+01  3.97970e-01 -8.88168e-04  5.38204e-01
  1.16258e+03  2.46390e+02 -5.66188e+01  3.98491e-01 -2.22245e-03  5.36785e-01
  1.16258e+03  2.46390e+02 -5.63949e+01  4.00295e-01 -6.60099e-03  5.30965e-01
  1.16258e+03  2.46390e+02 -5.61190e+01  4.02083e-01 -1.26402e-02  5.22256e-01
  1.16258e+03  2.46390e+02 -5.57490e+01  4.02464e-01 -1.67124e-02  5.13176e-01
  1.16258e+03  2.46390e+02 -5.54993e+01  4.03909e-01 -2.11599e-02  5.05603e-01
  1.16258e+03  2.46390e+02 -5.54596e+01  4.04132e-01 -2.18823e-02  5.04317e-01
  1.16258e+03  2.46390e+02 -5.54052e+01  4.04642e-01 -2.28142e-02  5.02769e-01
  1.16258e+03  2.46390e+02 -5.49534e+01  4.14443e-01 -2.97042e-02  4.97770e-01
  1.16258e+03  2.46390e+02 -5.47227e+01  4.19542e-01 -3.27395e-02  4.97835e-01
  1.16258e+03  2.46390e+02 -5.43332e+01  4.26181e-01 -4.03723e-02  4.90873e-01
  1.16258e+03  2.46390e+02 -5.41393e+01  4.29482e-01 -4.20020e-02  4.90358e-01
  1.16258e+03  2.46390e+02 -5.38685e+01  4.34955e-01 -4.96847e-02  4.86402e-01
  1.16258e+03  2.46390e+02 -5.33624e+01  4.45588e-01 -6.11773e-02  4.80683e-01
  1.16258e+03  2.46390e+02 -5.33333e+01  4.46187e-01 -6.19527e-02  4.80452e-01
  1.16258e+03  2.46390e+02 -5.26208e+01  4.50923e-01 -7.66468e-02  4.77144e-01
  1.16258e+03  2.46390e+02 -5.23403e+01  4.53249e-01 -8.37027e-02  4.72620e-01
  1.16258e+03  2.46390e+02 -5.15699e+01  4.64741e-01 -9.50968e-02  4.64372e-01
  1.16258e+03  2.46390e+02 -5.12040e+01  4.79815e-01 -9.03742e-02  4.54325e-01
  1.16258e+03  2.46390e+02 -5.08595e+01  4.83213e-01 -9.59471e-02  4.50324e-01
  1.16258e+03  2.46390e+02 -5.05773e+01  4.88626e-01 -9.84379e-02  4.46644e-01
  1.16258e+03  2.46390e+02 -5.01582e+01  4.96385e-01 -1.04307e-01  4.51774e-01
  1.16258e+03  2.46390e+02 -5.01121e+01  4.97510e-01 -1.04643e-01  4.51499e-01
  1.16258e+03  2.46390e+02 -5.00677e+01  4.98892e-01 -1.04399e-01  4.50732e-01
  1.16258e+03  2.46390e+02 -4.84074e+01  6.03721e-01 -6.61088e-02  4.64045e-01
  1.16258e+03  2.46390e+02 -4.81845e+01  6.22168e-01 -5.85731e-02  4.69285e-01
  1.16258e+03  2.46390e+02 -4.80675e+01  6.25951e-01 -5.83508e-02  4.67965e-01
  1.16258e+03  2.46390e+02 -4.78669e+01  6.26604e-01 -6.05026e-02  4.65345e-01
  1.16258e+03  2.46390e+02 -4.74802e+01  6.52731e-01 -5.21894e-02  4.66756e-01
  1.16258e+03  2.46390e+02 -4.47208e+01  7.35570e-01 -3.56597e-02  4.75964e-01
  1.16258e+03  2.46390e+02 -4.45414e+01  7.41367e-01 -3.44077e-02  4.76426e-01
  1.16258e+03  2.46390e+02 -4.44775e+01  7.43568e-01 -3.38821e-02  4.76532e-01
  1.16258e+03  2.46390e+02 -4.41381e+01  7.57457e-01 -2.96215e-02  4.76844e-01
  1.16258e+03  2.46390e+02 -4.39847e+01  7.60796e-01 -2.86797e-02  4.76758e-01
  1.16258e+03  2.46390e+02 -4.34836e+01  7.67803e-01 -2.83261e-02  4.75179e-01
  1.16258e+03  2.46390e+02 -4.22171e+01  7.83856e-01 -3.01159e-02  4.71766e-01
  1.16258e+03  2.46390e+02 -4.13487e+01  7.95289e-01 -3.23234e-02  4.69420e-01
  1.16258e+03  2.46390e+02 -4.10553e+01  7.96445e-01 -3.37419e-02  4.67958e-01
  1.16258e+03  2.46390e+02 -4.05599e+01  7.98390e-01 -3.67056e-02  4.64314e-01
  1.16258e+03  2.46390e+02 -3.99562e+01  8.02270e-01 -3.91802e-02  4.61645e-01
  1.16258e+03  2.46390e+02 -3.88682e+01  8.05964e-01 -4.63776e-02  4.51517e-01
  1.16258e+03  2.46390e+02 -3.80590e+01  8.09425e-01 -5.23922e-02  4.44215e-01
  1.16258e+03  2.46390e+02 -3.52901e+01  8.13053e-01 -6.09818e-02  4.22031e-01
  1.16258e+03  2.46390e+02 -3.49281e+01  8.13188e-01 -6.23923e-02  4.18635e-01
  1.16258e+03  2.46390e+02 -3.45499e+01  8.13005e-01 -6.38159e-02  4.15213e-01
  1.16258e+03  2.46390e+02 -3.40907e+01  8.12593e-01 -6.44972e-02  4.11138e-01
  1.16258e+03  2.46390e+02 -3.33313e+01  8.12222e-01 -6.59297e-02  4.04957e-01
  1.16258e+03  2.46390e+02 -3.31863e+01  8.12289e-01 -6.59605e-02  4.03639e-01
  1.16258e+03  2.46390e+02 -3.25849e+01  8.12424e-01 -6.65254e-02  3.99358e-01
  1.16258e+03  2.46390e+02 -3.16912e+01  8.12764e-01 -6.71897e-02  3.93338e-01
  1.16258e+03  2.46390e+02 -3.15128e+01  8.13271e-01 -6.74461e-02  3.92117e-01
  1.16258e+03  2.46390e+02 -3.10742e+01  8.14289e-01 -6.77264e-02  3.89595e-01
  1.16258e+03  2.46390e+02 -3.09012e+01  8.13690e-01 -6.77320e-02  3.88723e-01
  1.16258e+03  2.46390e+02 -3.02773e+01  8.14145e-01 -6.78082e-02  3.85305e-01
  1.16258e+03  2.46390e+02 -2.98026e+01  8.15123e-01 -6.78798e-02  3.82638e-01
  1.16258e+03  2.46390e+02 -2.92393e+01  8.18123e-01 -6.86854e-02  3.80019e-01
  1.16258e+03  2.46390e+02 -2.64386e+01  8.19070e-01 -6.88954e-02  3.64443e-01
  1.16258e+03  2.46390e+02 -2.61175e+01  8.19030e-01 -6.88485e-02  3.62673e-01
  1.16258e+03  2.46390e+02 -2.30811e+01  8.18881e-01 -6.87176e-02  3.47287e-01
  1.16258e+03  2.46390e+02 -2.28374e+01  8.18832e-01 -6.86781e-02  3.45911e-01
  1.16258e+03  2.46390e+02 -2.23346e+01  8.18383e-01 -6.83853e-02  3.42561e-01
  1.16258e+03  2.46390e+02 -2.16730e+01  8.17748e-01 -6.82431e-02  3.38859e-01
  1.16258e+03  2.46390e+02 -2.12742e+01  8.17139e-01 -6.80337e-02  3.36467e-01
  1.16258e+03  2.46390e+02 -2.08909e+01  8.16856e-01 -6.81212e-02  3.33783e-01
  1.16258e+03  2.46390e+02 -1.90663e+01  8.15790e-01 -6.81065e-02  3.25085e-01
  1.16258e+03  2.46390e+02 -1.84402e+01  8.15478e-01 -6.80235e-02  3.22840e-01
  1.16258e+03  2.46390e+02 -1.80545e+01  8.15262e-01 -6.79140e-02  3.21243e-01
  1.16258e+03  2.46390e+02 -1.58128e+01  8.14467e-01 -6.80306e-02  3.12273e-01
  1.16258e+03  2.46390e+02 -1.51904e+01  8.14388e-01 -6.75449e-02  3.10274e-01
  1.16258e+03  2.46390e+02 -1.37503e+01  8.13109e-01 -6.74616e-02  3.03730e-01
  1.16258e+03  2.46390e+02 -1.32103e+01  8.11689e-01 -6.61433e-02  3.00678e-01
  1.16258e+03  2.46390e+02 -1.28828e+01  8.11317e-01 -6.60245e-02  2.99681e-01
  1.16258e+03  2.46390e+02 -9.20051e+00  8.07050e-01 -6.49624e-02  2.88394e-01
  1.16258e+03  2.46390e+02 -8.98479e+00  8.06548e-01 -6.49903e-02  2.87325e-01
  1.16258e+03  2.46390e+02 -8.50619e+00  8.06441e-01 -6.48734e-02  2.85988e-01
  1.16258e+03  2.46390e+02 -7.78607e+00  8.05847e-01 -6.47513e-02  2.83822e-01
  1.16258e+03  2.46390e+02 -6.71496e+00  8.04664e-01 -6.44636e-02  2.80013e-01
  1.16258e+03  2.46390e+02 -4.95381e+00  8.03325e-01 -6.36413e-02  2.72644e-01
  1.16258e+03  2.46390e+02 -4.15788e+00  8.02318e-01 -6.30885e-02  2.69527e-01
  1.16258e+03  2.46390e+02 -4.00382e+00  8.02422e-01 -6.29626e-02  2.69249e-01
  1.16258e+03  2.46390e+02 -3.79997e+00  8.02072e-01 -6.27827e-02  2.68579e-01
  1.16258e+03  2.46390e+02 -2.84531e+00  8.00479e-01 -6.23250e-02  2.66626e-01
  1.16258e+03  2.46390e+02 -1.62509e+00  7.99750e-01 -6.21346e-02  2.63211e-01

ZONE T="024.2 case2b a7 medium, p1, wB, line2"
# extract along Z at X=1181.87, Y=246.386, from wing upper surface to at least 59mm high above surface
  1.18187e+03  2.46386e+02 -4.29674e+01  8.51795e-01 -2.29957e-01  4.84094e-01
  1.18187e+03  2.46386e+02 -4.27729e+01  8.66862e-01 -2.44546e-01  4.93217e-01
  1.18187e+03  2.46386e+02 -4.24543e+01  8.63112e-01 -2.60744e-01  4.91328e-01
  1.18187e+03  2.46386e+02 -4.23261e+01  8.58915e-01 -2.64842e-01  4.88482e-01
  1.18187e+03  2.46386e+02 -4.19313e+01  8.46533e-01 -2.76994e-01  4.80074e-01
  1.18187e+03  2.46386e+02 -4.10687e+01  8.31075e-01 -2.83438e-01  4.61399e-01
  1.18187e+03  2.46386e+02 -3.98740e+01  8.43438e-01 -2.66654e-01  4.43418e-01
  1.18187e+03  2.46386e+02 -3.96422e+01  8.45699e-01 -2.63080e-01  4.40061e-01
  1.18187e+03  2.46386e+02 -3.73139e+01  9.03267e-01 -1.92262e-01  4.15408e-01
  1.18187e+03  2.46386e+02 -3.65762e+01  9.11096e-01 -1.87713e-01  4.09408e-01
  1.18187e+03  2.46386e+02 -3.59242e+01  9.15704e-01 -1.83196e-01  4.04411e-01
  1.18187e+03  2.46386e+02 -3.53860e+01  9.19436e-01 -1.79616e-01  4.00342e-01
  1.18187e+03  2.46386e+02 -3.47080e+01  9.24187e-01 -1.74876e-01  3.95113e-01
  1.18187e+03  2.46386e+02 -3.38527e+01  9.30749e-01 -1.69239e-01  3.88217e-01
  1.18187e+03  2.46386e+02 -3.35053e+01  9.33099e-01 -1.66504e-01  3.85609e-01
  1.18187e+03  2.46386e+02 -3.16208e+01  9.38695e-01 -1.52811e-01  3.70898e-01
  1.18187e+03  2.46386e+02 -3.01434e+01  9.44198e-01 -1.42322e-01  3.59089e-01
  1.18187e+03  2.46386e+02 -2.92281e+01  9.44676e-01 -1.36431e-01  3.52571e-01
  1.18187e+03  2.46386e+02 -2.84991e+01  9.42271e-01 -1.33311e-01  3.46060e-01
  1.18187e+03  2.46386e+02 -2.80088e+01  9.39419e-01 -1.31248e-01  3.41383e-01
  1.18187e+03  2.46386e+02 -2.43419e+01  9.21074e-01 -1.18128e-01  3.17058e-01
  1.18187e+03  2.46386e+02 -2.36930e+01  9.17779e-01 -1.15975e-01  3.12212e-01
  1.18187e+03  2.46386e+02 -2.36292e+01  9.17477e-01 -1.15783e-01  3.11798e-01
  1.18187e+03  2.46386e+02 -2.32860e+01  9.15494e-01 -1.15659e-01  3.09037e-01
  1.18187e+03  2.46386e+02 -2.32018e+01  9.14978e-01 -1.15595e-01  3.08382e-01
  1.18187e+03  2.46386e+02 -2.31771e+01  9.14833e-01 -1.15609e-01  3.08118e-01
  1.18187e+03  2.46386e+02 -2.31111e+01  9.14607e-01 -1.15546e-01  3.07839e-01
  1.18187e+03  2.46386e+02 -2.27765e+01  9.13332e-01 -1.15292e-01  3.06151e-01
  1.18187e+03  2.46386e+02 -2.18798e+01  9.08831e-01 -1.14650e-01  3.00108e-01
  1.18187e+03  2.46386e+02 -1.92643e+01  8.95614e-01 -1.12905e-01  2.82145e-01
  1.18187e+03  2.46386e+02 -1.87483e+01  8.92131e-01 -1.11585e-01  2.79767e-01
  1.18187e+03  2.46386e+02 -1.81165e+01  8.89566e-01 -1.10382e-01  2.78152e-01
  1.18187e+03  2.46386e+02 -1.63464e+01  8.81952e-01 -1.06774e-01  2.71891e-01
  1.18187e+03  2.46386e+02 -1.58825e+01  8.79864e-01 -1.05930e-01  2.70034e-01
  1.18187e+03  2.46386e+02 -1.55819e+01  8.78866e-01 -1.05012e-01  2.68990e-01
  1.18187e+03  2.46386e+02 -1.46470e+01  8.75464e-01 -1.03533e-01  2.66159e-01
  1.18187e+03  2.46386e+02 -1.24200e+01  8.68350e-01 -9.89927e-02  2.59182e-01
  1.18187e+03  2.46386e+02 -1.21344e+01  8.67469e-01 -9.83796e-02  2.58280e-01
  1.18187e+03  2.46386e+02 -1.08235e+01  8.63935e-01 -9.65154e-02  2.53502e-01
  1.18187e+03  2.46386e+02 -1.03049e+01  8.62545e-01 -9.57754e-02  2.51593e-01
  1.18187e+03  2.46386e+02 -1.02730e+01  8.62477e-01 -9.57366e-02  2.51496e-01
  1.18187e+03  2.46386e+02 -7.81625e+00  8.56885e-01 -9.27008e-02  2.45443e-01
  1.18187e+03  2.46386e+02 -6.76979e+00  8.53803e-01 -9.12296e-02  2.43180e-01
  1.18187e+03  2.46386e+02 -5.81172e+00  8.51206e-01 -9.00978e-02  2.41475e-01
  1.18187e+03  2.46386e+02 -5.35469e+00  8.49974e-01 -8.91788e-02  2.39461e-01
  1.18187e+03  2.46386e+02 -4.44936e+00  8.48707e-01 -8.90110e-02  2.37503e-01
  1.18187e+03  2.46386e+02 -3.67513e+00  8.46176e-01 -8.74726e-02  2.35213e-01
  1.18187e+03  2.46386e+02 -2.11213e+00  8.40597e-01 -8.39110e-02  2.30391e-01
  1.18187e+03  2.46386e+02 -1.77545e+00  8.39914e-01 -8.35329e-02  2.29512e-01
  1.18187e+03  2.46386e+02 -1.44183e+00  8.39006e-01 -8.30792e-02  2.28766e-01
  1.18187e+03  2.46386e+02 -9.60423e-01  8.37947e-01 -8.25967e-02  2.27943e-01
  1.18187e+03  2.46386e+02  5.44834e+00  8.25183e-01 -7.63802e-02  2.16990e-01
  1.18187e+03  2.46386e+02  5.61800e+00  8.24865e-01 -7.62017e-02  2.16570e-01
  1.18187e+03  2.46386e+02  6.33685e+00  8.23611e-01 -7.57456e-02  2.15471e-01
  1.18187e+03  2.46386e+02  8.98241e+00  8.18203e-01 -7.36375e-02  2.11013e-01
  1.18187e+03  2.46386e+02  1.07586e+01  8.15597e-01 -7.25202e-02  2.08113e-01
  1.18187e+03  2.46386e+02  1.22213e+01  8.13373e-01 -7.15670e-02  2.05655e-01
  1.18187e+03  2.46386e+02  1.24615e+01  8.12966e-01 -7.13708e-02  2.05104e-01
  1.18187e+03  2.46386e+02  1.45020e+01  8.09085e-01 -6.93288e-02  2.01899e-01
  1.18187e+03  2.46386e+02  1.52665e+01  8.07868e-01 -6.88710e-02  2.01141e-01

ZONE T="024.2 case2b a7 medium, p1, wC, line1"
# extract along Z at X=1296.28, Y=246.386, from wing upper surface to at least 59mm high above surface
  1.29628e+03  2.46386e+02 -3.75738e+01  2.88534e-01 -7.91651e-02 -1.28392e-02
  1.29628e+03  2.46386e+02 -3.75584e+01  3.18155e-01 -8.78837e-02 -1.41065e-02
  1.29628e+03  2.46386e+02 -3.75333e+01  3.46538e-01 -9.66496e-02 -1.53936e-02
  1.29628e+03  2.46386e+02 -3.74920e+01  3.74773e-01 -1.05919e-01 -1.65474e-02
  1.29628e+03  2.46386e+02 -3.74241e+01  4.03510e-01 -1.16023e-01 -1.77997e-02
  1.29628e+03  2.46386e+02 -3.73128e+01  4.33515e-01 -1.27271e-01 -1.88683e-02
  1.29628e+03  2.46386e+02 -3.71300e+01  4.65997e-01 -1.39759e-01 -2.00445e-02
  1.29628e+03  2.46386e+02 -3.68299e+01  5.02922e-01 -1.52991e-01 -2.08558e-02
  1.29628e+03  2.46386e+02 -3.63373e+01  5.47115e-01 -1.64583e-01 -2.16144e-02
  1.29628e+03  2.46386e+02 -3.55286e+01  6.02205e-01 -1.69204e-01 -2.14527e-02
  1.29628e+03  2.46386e+02 -3.42010e+01  6.72143e-01 -1.58166e-01 -2.09004e-02
  1.29628e+03  2.46386e+02 -3.20218e+01  7.59062e-01 -1.25910e-01 -1.89890e-02
  1.29628e+03  2.46386e+02 -3.09711e+01  7.66141e-01 -1.22661e-01 -1.78187e-02
  1.29628e+03  2.46386e+02 -2.92559e+01  7.77975e-01 -1.17005e-01 -1.58089e-02
  1.29628e+03  2.46386e+02 -2.84475e+01  7.83567e-01 -1.14305e-01 -1.48916e-02
  1.29628e+03  2.46386e+02 -2.76999e+01  7.86951e-01 -1.12306e-01 -1.39244e-02
  1.29628e+03  2.46386e+02 -2.45432e+01  8.03160e-01 -1.03639e-01 -9.57960e-03
  1.29628e+03  2.46386e+02 -2.38411e+01  8.07005e-01 -1.01672e-01 -8.55697e-03
  1.29628e+03  2.46386e+02 -2.33507e+01  8.10334e-01 -9.97390e-02 -8.00086e-03
  1.29628e+03  2.46386e+02 -2.14750e+01  8.23605e-01 -9.17943e-02 -5.79285e-03
  1.29628e+03  2.46386e+02 -2.08550e+01  8.27589e-01 -8.93787e-02 -4.75933e-03
  1.29628e+03  2.46386e+02 -1.82960e+01  8.35973e-01 -8.39412e-02 -1.99033e-03
  1.29628e+03  2.46386e+02 -1.62015e+01  8.41803e-01 -7.94406e-02  4.92643e-04
  1.29628e+03  2.46386e+02 -1.50731e+01  8.44515e-01 -7.72681e-02  1.51619e-03
  1.29628e+03  2.46386e+02 -1.28820e+01  8.47585e-01 -7.41974e-02  4.95824e-03
  1.29628e+03  2.46386e+02 -1.17296e+01  8.49398e-01 -7.23986e-02  6.82292e-03
  1.29628e+03  2.46386e+02 -1.11968e+01  8.50020e-01 -7.18316e-02  7.57152e-03
  1.29628e+03  2.46386e+02 -1.11346e+01  8.50139e-01 -7.17748e-02  7.61494e-03
  1.29628e+03  2.46386e+02 -1.09150e+01  8.50060e-01 -7.16582e-02  7.83787e-03
  1.29628e+03  2.46386e+02 -1.01937e+01  8.49552e-01 -7.12887e-02  8.48230e-03
  1.29628e+03  2.46386e+02 -5.89104e+00  8.46026e-01 -6.94446e-02  1.29586e-02
  1.29628e+03  2.46386e+02 -5.27189e+00  8.45038e-01 -6.93580e-02  1.37718e-02
  1.29628e+03  2.46386e+02 -3.39387e+00  8.42105e-01 -6.90458e-02  1.57690e-02
  1.29628e+03  2.46386e+02 -1.14649e+00  8.38841e-01 -6.86245e-02  1.80107e-02
  1.29628e+03  2.46386e+02  1.92649e+00  8.34371e-01 -6.78620e-02  2.09192e-02
  1.29628e+03  2.46386e+02  3.36613e+00  8.32835e-01 -6.76475e-02  2.20306e-02
  1.29628e+03  2.46386e+02  4.13556e+00  8.31805e-01 -6.75835e-02  2.27611e-02
  1.29628e+03  2.46386e+02  5.03505e+00  8.30525e-01 -6.74956e-02  2.36518e-02
  1.29628e+03  2.46386e+02  5.65404e+00  8.29745e-01 -6.74158e-02  2.42259e-02
  1.29628e+03  2.46386e+02  8.16054e+00  8.26299e-01 -6.68596e-02  2.72147e-02
  1.29628e+03  2.46386e+02  9.06783e+00  8.25050e-01 -6.66628e-02  2.82696e-02
  1.29628e+03  2.46386e+02  9.78058e+00  8.24352e-01 -6.64789e-02  2.89471e-02
  1.29628e+03  2.46386e+02  1.03969e+01  8.23878e-01 -6.63276e-02  2.95194e-02
  1.29628e+03  2.46386e+02  1.11885e+01  8.23296e-01 -6.60485e-02  3.01694e-02
  1.29628e+03  2.46386e+02  1.53447e+01  8.20280e-01 -6.46251e-02  3.32402e-02
  1.29628e+03  2.46386e+02  1.57287e+01  8.20007e-01 -6.45149e-02  3.36732e-02
  1.29628e+03  2.46386e+02  1.68147e+01  8.19195e-01 -6.40513e-02  3.41469e-02
  1.29628e+03  2.46386e+02  1.79631e+01  8.18429e-01 -6.36461e-02  3.49495e-02
  1.29628e+03  2.46386e+02  2.02229e+01  8.16809e-01 -6.27888e-02  3.62267e-02

ZONE T="024.2 case2b a7 medium, p1, wD, line1"
# extract along Z at X=1461.48, Y=246.386, from wing upper surface to at least 59mm high above surface
  1.46148e+03  2.46386e+02 -5.11709e+01  3.60968e-01 -2.22916e-02 -4.70538e-02
  1.46148e+03  2.46386e+02 -5.10582e+01  3.87537e-01 -2.55729e-02 -5.05585e-02
  1.46148e+03  2.46386e+02 -5.08734e+01  4.15639e-01 -2.93572e-02 -5.45157e-02
  1.46148e+03  2.46386e+02 -5.05699e+01  4.47190e-01 -3.36831e-02 -5.86366e-02
  1.46148e+03  2.46386e+02 -5.00717e+01  4.85391e-01 -3.82232e-02 -6.38367e-02
  1.46148e+03  2.46386e+02 -4.92542e+01  5.34921e-01 -4.23734e-02 -6.97899e-02
  1.46148e+03  2.46386e+02 -4.79125e+01  6.00157e-01 -4.43580e-02 -7.74570e-02
  1.46148e+03  2.46386e+02 -4.57111e+01  6.82550e-01 -4.23666e-02 -8.53674e-02
  1.46148e+03  2.46386e+02 -4.47738e+01  6.88964e-01 -4.17551e-02 -8.52575e-02
  1.46148e+03  2.46386e+02 -4.23816e+01  7.05750e-01 -4.01870e-02 -8.49137e-02
  1.46148e+03  2.46386e+02 -4.21016e+01  7.07505e-01 -4.00262e-02 -8.48809e-02
  1.46148e+03  2.46386e+02 -4.11713e+01  7.11488e-01 -3.94186e-02 -8.46252e-02
  1.46148e+03  2.46386e+02 -3.88261e+01  7.20757e-01 -3.80024e-02 -8.40066e-02
  1.46148e+03  2.46386e+02 -3.83585e+01  7.22818e-01 -3.76634e-02 -8.37023e-02
  1.46148e+03  2.46386e+02 -3.80186e+01  7.23963e-01 -3.74788e-02 -8.36885e-02
  1.46148e+03  2.46386e+02 -3.75976e+01  7.26018e-01 -3.69524e-02 -8.35562e-02
  1.46148e+03  2.46386e+02 -3.73202e+01  7.27536e-01 -3.65301e-02 -8.34397e-02
  1.46148e+03  2.46386e+02 -3.70008e+01  7.28881e-01 -3.62608e-02 -8.33340e-02
  1.46148e+03  2.46386e+02 -3.40661e+01  7.47219e-01 -3.10360e-02 -8.18881e-02
  1.46148e+03  2.46386e+02 -3.36192e+01  7.49557e-01 -3.02677e-02 -8.16918e-02
  1.46148e+03  2.46386e+02 -3.25821e+01  7.55144e-01 -2.85041e-02 -8.13426e-02
  1.46148e+03  2.46386e+02 -3.10997e+01  7.61263e-01 -2.60381e-02 -8.10831e-02
  1.46148e+03  2.46386e+02 -3.07420e+01  7.62619e-01 -2.54878e-02 -8.09523e-02
  1.46148e+03  2.46386e+02 -2.77011e+01  7.73318e-01 -2.15957e-02 -7.92285e-02
  1.46148e+03  2.46386e+02 -2.58825e+01  7.78509e-01 -1.91568e-02 -7.83731e-02
  1.46148e+03  2.46386e+02 -2.39205e+01  7.82317e-01 -1.71329e-02 -7.75122e-02
  1.46148e+03  2.46386e+02 -2.26277e+01  7.84960e-01 -1.55383e-02 -7.67092e-02
  1.46148e+03  2.46386e+02 -2.24362e+01  7.85272e-01 -1.53301e-02 -7.65561e-02
  1.46148e+03  2.46386e+02 -1.90558e+01  7.88162e-01 -1.32786e-02 -7.43661e-02
  1.46148e+03  2.46386e+02 -1.72775e+01  7.89417e-01 -1.23327e-02 -7.33226e-02
  1.46148e+03  2.46386e+02 -1.71174e+01  7.89445e-01 -1.22764e-02 -7.32056e-02
  1.46148e+03  2.46386e+02 -1.48961e+01  7.89625e-01 -1.17937e-02 -7.15297e-02
  1.46148e+03  2.46386e+02 -1.25559e+01  7.89176e-01 -1.16253e-02 -6.96854e-02
  1.46148e+03  2.46386e+02 -1.15272e+01  7.88619e-01 -1.18180e-02 -6.88301e-02
  1.46148e+03  2.46386e+02 -1.02147e+01  7.87923e-01 -1.20338e-02 -6.77490e-02
  1.46148e+03  2.46386e+02 -9.33393e+00  7.87398e-01 -1.22657e-02 -6.71056e-02
  1.46148e+03  2.46386e+02 -5.87491e+00  7.85359e-01 -1.28157e-02 -6.47737e-02
  1.46148e+03  2.46386e+02 -2.64432e+00  7.83360e-01 -1.38111e-02 -6.23028e-02
  1.46148e+03  2.46386e+02 -2.47160e+00  7.83233e-01 -1.38936e-02 -6.21434e-02
  1.46148e+03  2.46386e+02 -1.48116e+00  7.82460e-01 -1.44773e-02 -6.11217e-02
  1.46148e+03  2.46386e+02 -7.98206e-01  7.82048e-01 -1.46797e-02 -6.07419e-02
  1.46148e+03  2.46386e+02 -7.20100e-03  7.81558e-01 -1.49234e-02 -6.01749e-02
  1.46148e+03  2.46386e+02  2.82012e+00  7.79778e-01 -1.58105e-02 -5.79292e-02
  1.46148e+03  2.46386e+02  4.50661e+00  7.78744e-01 -1.62736e-02 -5.68596e-02
  1.46148e+03  2.46386e+02  5.26554e+00  7.78331e-01 -1.65438e-02 -5.62623e-02
  1.46148e+03  2.46386e+02  7.05762e+00  7.77445e-01 -1.69257e-02 -5.51184e-02

ZONE T="024.2 case2b a7 medium, p2, wB, line1"
# extract along Z at X=1635.09, Y=979.596, from wing upper surface to at least 59mm high above surface
  1.63509e+03  9.79596e+02 -7.82574e+00  9.08440e-01 -2.60363e-01  2.96783e-01
  1.63509e+03  9.79596e+02 -7.75738e+00  9.95226e-01 -2.85262e-01  3.26242e-01
  1.63509e+03  9.79596e+02 -7.64967e+00  1.06678e+00 -3.04353e-01  3.50357e-01
  1.63509e+03  9.79596e+02 -7.47996e+00  1.10369e+00 -3.12207e-01  3.63804e-01
  1.63509e+03  9.79596e+02 -7.21254e+00  1.10283e+00 -3.09598e-01  3.63592e-01
  1.63509e+03  9.79596e+02 -6.92491e+00  1.08596e+00 -3.04802e-01  3.58392e-01
  1.63509e+03  9.79596e+02 -6.79163e+00  1.07804e+00 -3.02362e-01  3.56042e-01
  1.63509e+03  9.79596e+02 -6.13013e+00  1.04818e+00 -2.95278e-01  3.45517e-01
  1.63509e+03  9.79596e+02 -5.08748e+00  1.02737e+00 -2.87778e-01  3.36861e-01
  1.63509e+03  9.79596e+02 -4.58855e+00  1.02664e+00 -2.86120e-01  3.35907e-01
  1.63509e+03  9.79596e+02 -3.85579e+00  1.02560e+00 -2.84626e-01  3.34190e-01
  1.63509e+03  9.79596e+02 -3.44823e+00  1.02499e+00 -2.83651e-01  3.33377e-01
  1.63509e+03  9.79596e+02 -3.18473e+00  1.02484e+00 -2.82611e-01  3.32004e-01
  1.63509e+03  9.79596e+02 -2.78607e+00  1.02402e+00 -2.80932e-01  3.30270e-01
  1.63509e+03  9.79596e+02 -2.25181e+00  1.02267e+00 -2.78154e-01  3.28822e-01
  1.63509e+03  9.79596e+02 -1.40070e+00  1.02128e+00 -2.74721e-01  3.25544e-01
  1.63509e+03  9.79596e+02 -8.67927e-01  1.01901e+00 -2.71867e-01  3.24516e-01
  1.63509e+03  9.79596e+02 -5.51606e-01  1.01634e+00 -2.69240e-01  3.21949e-01
  1.63509e+03  9.79596e+02  2.82578e-01  1.00984e+00 -2.63382e-01  3.17445e-01
  1.63509e+03  9.79596e+02  1.10049e+00  1.00441e+00 -2.58032e-01  3.14357e-01
  1.63509e+03  9.79596e+02  1.43757e+00  1.00138e+00 -2.55934e-01  3.10800e-01
  1.63509e+03  9.79596e+02  2.13941e+00  9.94896e-01 -2.51677e-01  3.07494e-01
  1.63509e+03  9.79596e+02  2.58543e+00  9.91512e-01 -2.49406e-01  3.04465e-01
  1.63509e+03  9.79596e+02  3.52802e+00  9.82770e-01 -2.44442e-01  3.00250e-01
  1.63509e+03  9.79596e+02  3.74715e+00  9.80759e-01 -2.43373e-01  2.98930e-01
  1.63509e+03  9.79596e+02  4.49316e+00  9.75017e-01 -2.40058e-01  2.92932e-01
  1.63509e+03  9.79596e+02  4.79648e+00  9.72601e-01 -2.38684e-01  2.90436e-01
  1.63509e+03  9.79596e+02  4.90440e+00  9.71925e-01 -2.38315e-01  2.89915e-01
  1.63509e+03  9.79596e+02  5.99314e+00  9.65118e-01 -2.34644e-01  2.85470e-01
  1.63509e+03  9.79596e+02  7.14464e+00  9.57297e-01 -2.29701e-01  2.80787e-01
  1.63509e+03  9.79596e+02  7.43885e+00  9.55020e-01 -2.28235e-01  2.78546e-01
  1.63509e+03  9.79596e+02  8.09075e+00  9.51249e-01 -2.25701e-01  2.75775e-01
  1.63509e+03  9.79596e+02  9.04008e+00  9.45610e-01 -2.21779e-01  2.71733e-01
  1.63509e+03  9.79596e+02  1.03207e+01  9.38056e-01 -2.17086e-01  2.66761e-01
  1.63509e+03  9.79596e+02  1.04491e+01  9.37304e-01 -2.16624e-01  2.66211e-01
  1.63509e+03  9.79596e+02  1.05272e+01  9.36886e-01 -2.16319e-01  2.65814e-01
  1.63509e+03  9.79596e+02  1.13257e+01  9.33188e-01 -2.13501e-01  2.62051e-01
  1.63509e+03  9.79596e+02  1.17644e+01  9.30979e-01 -2.12155e-01  2.60172e-01
  1.63509e+03  9.79596e+02  1.17915e+01  9.30860e-01 -2.12072e-01  2.60076e-01
  1.63509e+03  9.79596e+02  1.27650e+01  9.27077e-01 -2.09167e-01  2.57181e-01
  1.63509e+03  9.79596e+02  1.35434e+01  9.23571e-01 -2.06676e-01  2.54710e-01
  1.63509e+03  9.79596e+02  1.40426e+01  9.21707e-01 -2.05482e-01  2.52964e-01
  1.63509e+03  9.79596e+02  1.40869e+01  9.21506e-01 -2.05360e-01  2.52802e-01
  1.63509e+03  9.79596e+02  1.41488e+01  9.21234e-01 -2.05200e-01  2.52563e-01
  1.63509e+03  9.79596e+02  1.49703e+01  9.16935e-01 -2.02796e-01  2.49234e-01
  1.63509e+03  9.79596e+02  1.60900e+01  9.11345e-01 -1.99391e-01  2.45559e-01
  1.63509e+03  9.79596e+02  1.63478e+01  9.10075e-01 -1.98571e-01  2.44821e-01
  1.63509e+03  9.79596e+02  1.68956e+01  9.08087e-01 -1.97246e-01  2.43802e-01
  1.63509e+03  9.79596e+02  1.99845e+01  8.96935e-01 -1.89290e-01  2.37429e-01
  1.63509e+03  9.79596e+02  2.00488e+01  8.96694e-01 -1.89115e-01  2.37269e-01
  1.63509e+03  9.79596e+02  2.01899e+01  8.96235e-01 -1.88844e-01  2.36866e-01
  1.63509e+03  9.79596e+02  2.08482e+01  8.94835e-01 -1.87835e-01  2.35134e-01
  1.63509e+03  9.79596e+02  2.10614e+01  8.94337e-01 -1.87490e-01  2.34547e-01
  1.63509e+03  9.79596e+02  2.10718e+01  8.94299e-01 -1.87467e-01  2.34512e-01
  1.63509e+03  9.79596e+02  2.34111e+01  8.85623e-01 -1.82306e-01  2.26296e-01
  1.63509e+03  9.79596e+02  2.35149e+01  8.85301e-01 -1.82095e-01  2.25907e-01
  1.63509e+03  9.79596e+02  2.35805e+01  8.85047e-01 -1.81937e-01  2.25734e-01
  1.63509e+03  9.79596e+02  2.63320e+01  8.76044e-01 -1.76324e-01  2.18590e-01
  1.63509e+03  9.79596e+02  2.69842e+01  8.74477e-01 -1.75356e-01  2.16941e-01
  1.63509e+03  9.79596e+02  2.78633e+01  8.71595e-01 -1.73391e-01  2.15133e-01
  1.63509e+03  9.79596e+02  2.87146e+01  8.69287e-01 -1.71869e-01  2.13415e-01
  1.63509e+03  9.79596e+02  3.17315e+01  8.62315e-01 -1.66766e-01  2.06752e-01
  1.63509e+03  9.79596e+02  3.28338e+01  8.59813e-01 -1.64943e-01  2.04772e-01
  1.63509e+03  9.79596e+02  3.31433e+01  8.59089e-01 -1.64384e-01  2.04350e-01
  1.63509e+03  9.79596e+02  3.44494e+01  8.55832e-01 -1.62213e-01  2.01229e-01
  1.63509e+03  9.79596e+02  3.53435e+01  8.53625e-01 -1.60811e-01  1.98606e-01
  1.63509e+03  9.79596e+02  3.65438e+01  8.50601e-01 -1.59001e-01  1.96481e-01
  1.63509e+03  9.79596e+02  3.84129e+01  8.46414e-01 -1.56454e-01  1.92779e-01
  1.63509e+03  9.79596e+02  3.92684e+01  8.44546e-01 -1.55432e-01  1.91428e-01
  1.63509e+03  9.79596e+02  4.16270e+01  8.40806e-01 -1.52920e-01  1.87285e-01
  1.63509e+03  9.79596e+02  4.23401e+01  8.39643e-01 -1.52057e-01  1.85461e-01
  1.63509e+03  9.79596e+02  4.39391e+01  8.36474e-01 -1.49821e-01  1.82532e-01
  1.63509e+03  9.79596e+02  4.46459e+01  8.34976e-01 -1.48948e-01  1.81645e-01
  1.63509e+03  9.79596e+02  4.55553e+01  8.32906e-01 -1.47994e-01  1.81102e-01
  1.63509e+03  9.79596e+02  4.67287e+01  8.30459e-01 -1.46341e-01  1.79066e-01
  1.63509e+03  9.79596e+02  4.72631e+01  8.29285e-01 -1.45663e-01  1.78576e-01
  1.63509e+03  9.79596e+02  5.04277e+01  8.23285e-01 -1.42133e-01  1.73670e-01
  1.63509e+03  9.79596e+02  5.04857e+01  8.23177e-01 -1.42064e-01  1.73584e-01
  1.63509e+03  9.79596e+02  5.09489e+01  8.22658e-01 -1.41670e-01  1.72784e-01
  1.63509e+03  9.79596e+02  5.10933e+01  8.22451e-01 -1.41528e-01  1.72578e-01
  1.63509e+03  9.79596e+02  5.11479e+01  8.22465e-01 -1.41497e-01  1.72474e-01

ZONE T="024.2 case2b a7 medium, p2, wB, line2"
# extract along Z at X=1648.20, Y=979.596, from wing upper surface to at least 59mm high above surface
  1.64820e+03  9.79596e+02 -4.85942e+00  8.08140e-01 -2.28735e-01  1.46528e-01
  1.64820e+03  9.79596e+02 -4.81706e+00  8.72536e-01 -2.46474e-01  1.57746e-01
  1.64820e+03  9.79596e+02 -4.75028e+00  9.42713e-01 -2.65580e-01  1.70842e-01
  1.64820e+03  9.79596e+02 -4.64501e+00  1.01264e+00 -2.84327e-01  1.82748e-01
  1.64820e+03  9.79596e+02 -4.47907e+00  1.06778e+00 -2.98704e-01  1.93239e-01
  1.64820e+03  9.79596e+02 -4.21746e+00  1.09347e+00 -3.04690e-01  1.96565e-01
  1.64820e+03  9.79596e+02 -3.80503e+00  1.08656e+00 -3.01611e-01  1.95771e-01
  1.64820e+03  9.79596e+02 -3.15480e+00  1.06195e+00 -2.93186e-01  1.88666e-01
  1.64820e+03  9.79596e+02 -2.33093e+00  1.04082e+00 -2.84273e-01  1.86248e-01
  1.64820e+03  9.79596e+02 -2.13128e+00  1.03553e+00 -2.81937e-01  1.85637e-01
  1.64820e+03  9.79596e+02 -2.02625e+00  1.03499e+00 -2.81544e-01  1.85881e-01
  1.64820e+03  9.79596e+02 -1.16761e+00  1.03037e+00 -2.78294e-01  1.86386e-01