
#++++++++++++++++++++++++++++++++++++++++++++++++++++++++++++++++++++++++++++++++++++++++++++++++++++++++++++++++++++++++++++++++++++++
#
#   HiLiftPW-2 Velocity DATA SUBMITTAL FORM Case 2a (Version 1), March 2013
#
#   CASE 2 is a required Reynolds number study at 8 different angles-of-attack each.
#   Config 4 (including Slat Tracks and Flap Track Fairings) should be used.
#   A comparable *Medium* mesh density from the Grid Convergence Study should be used.
#   The required parts of this case (Case 2a and 2b) should be run FULLY TURBULENT (no forced transition).
#   An optional part of this case (Case 2c) can be run with transition specified or predicted.
#
#   This data file only asks for a subset of information to be reported: AoA=7, 18.5, and 21 only.
#
#       NOMENCLATURE:
#              ALPHA:	Angle of attack, deg.
#                 FT:   Fully Turbulent
#                 TR:   Transition specified or computed
#              X,Y,Z:   Cartesian coordinates, in mm
#             u/Uinf:   Velocity component in X-direction relative to freestream
#             v/Uinf:   Velocity component in Y-direction relative to freestream
#             w/Uinf:   Velocity component in Z-direction relative to freestream
#
#                XXX:	Participant ID (To be assigned by HiLiftPW-1 workshop committee)
#
#    FLOW CONDITIONS CASE 2a:
#                 Mach Number: 0.175
#             Reynolds Number: 1.35 million (based on MAC)
#             Freestream Temp: 298.6 K (537.48 R)
#  Freestream Static Pressure: 100700 Pa (14.6053 psi)
#
#              NOTES: 1. All numerical data fields can be free-formatted
#                     2. Please use at least 3 decimal places in the numerical values for velocity
#                     3. If optional data is NOT provided, please fill data fields with a numerical value of "-999" 
#                     4. Results are requested for both medium and fine grids
#
#++++++++++++++++++++++++++++++++++++++++++++++++++++++++++++++++++++++++++++++++++++++++++++++++++++++++++++++++++++++++++++++++++++++

TITLE = "024.2"

VARIABLES = "X" "Y" "Z" "u/Uinf" "v/Uinf" "w/Uinf"


ZONE T="024.2 case2a a7 medium, p1, wB, line1"
# extract along Z at X=1162.58, Y=246.386, from wing upper surface to at least 59mm high above surface
  1.16258e+03  2.46390e+02 -5.99151e+01  4.60932e-01  1.55175e-01  6.79254e-01
  1.16258e+03  2.46390e+02 -5.97525e+01  4.83939e-01  1.50792e-01  7.12025e-01
  1.16258e+03  2.46390e+02 -5.96477e+01  4.96810e-01  1.47182e-01  7.30022e-01
  1.16258e+03  2.46390e+02 -5.95530e+01  5.08566e-01  1.44021e-01  7.47227e-01
  1.16258e+03  2.46390e+02 -5.93118e+01  5.34396e-01  1.34525e-01  7.83325e-01
  1.16258e+03  2.46390e+02 -5.90147e+01  5.63065e-01  1.20927e-01  8.19121e-01
  1.16258e+03  2.46390e+02 -5.89443e+01  5.69258e-01  1.17611e-01  8.26767e-01
  1.16258e+03  2.46390e+02 -5.86593e+01  5.90455e-01  1.05171e-01  8.54019e-01
  1.16258e+03  2.46390e+02 -5.82308e+01  6.23255e-01  8.31962e-02  8.84478e-01
  1.16258e+03  2.46390e+02 -5.82219e+01  6.23814e-01  8.27704e-02  8.85065e-01
  1.16258e+03  2.46390e+02 -5.77144e+01  6.49369e-01  5.94860e-02  9.10994e-01
  1.16258e+03  2.46390e+02 -5.74794e+01  6.61067e-01  4.61833e-02  9.16093e-01
  1.16258e+03  2.46390e+02 -5.70870e+01  6.73902e-01  2.48459e-02  9.16989e-01
  1.16258e+03  2.46390e+02 -5.67064e+01  6.65812e-01  4.93908e-03  9.00366e-01
  1.16258e+03  2.46390e+02 -5.63309e+01  6.61823e-01 -1.63128e-02  8.90128e-01
  1.16258e+03  2.46390e+02 -5.60293e+01  6.60572e-01 -2.58266e-02  8.77222e-01
  1.16258e+03  2.46390e+02 -5.60051e+01  6.60513e-01 -2.65931e-02  8.76305e-01
  1.16258e+03  2.46390e+02 -5.57489e+01  6.58657e-01 -3.50597e-02  8.60217e-01
  1.16258e+03  2.46390e+02 -5.55296e+01  6.57919e-01 -4.36204e-02  8.46231e-01
  1.16258e+03  2.46390e+02 -5.54524e+01  6.57454e-01 -4.63994e-02  8.41379e-01
  1.16258e+03  2.46390e+02 -5.54052e+01  6.58099e-01 -4.84302e-02  8.38431e-01
  1.16258e+03  2.46390e+02 -5.49709e+01  6.76043e-01 -6.22539e-02  8.29423e-01
  1.16258e+03  2.46390e+02 -5.47561e+01  6.84589e-01 -6.72582e-02  8.29935e-01
  1.16258e+03  2.46390e+02 -5.45513e+01  6.91589e-01 -7.24844e-02  8.23194e-01
  1.16258e+03  2.46390e+02 -5.41182e+01  7.00552e-01 -8.64957e-02  8.20632e-01
  1.16258e+03  2.46390e+02 -5.35427e+01  7.16295e-01 -1.02385e-01  8.13703e-01
  1.16258e+03  2.46390e+02 -5.33343e+01  7.21231e-01 -1.07130e-01  8.11651e-01
  1.16258e+03  2.46390e+02 -5.29677e+01  7.33175e-01 -1.23254e-01  8.03905e-01
  1.16258e+03  2.46390e+02 -5.28303e+01  7.37149e-01 -1.27563e-01  8.00886e-01
  1.16258e+03  2.46390e+02 -5.25710e+01  7.40868e-01 -1.35133e-01  7.97249e-01
  1.16258e+03  2.46390e+02 -5.24723e+01  7.43187e-01 -1.38786e-01  7.96005e-01
  1.16258e+03  2.46390e+02 -5.07457e+01  7.85065e-01 -1.66584e-01  7.65412e-01
  1.16258e+03  2.46390e+02 -5.05678e+01  7.88081e-01 -1.70244e-01  7.61509e-01
  1.16258e+03  2.46390e+02 -5.04921e+01  7.87212e-01 -1.73853e-01  7.59689e-01
  1.16258e+03  2.46390e+02 -5.03099e+01  7.96797e-01 -1.72296e-01  7.56782e-01
  1.16258e+03  2.46390e+02 -5.02599e+01  7.98600e-01 -1.72598e-01  7.55628e-01
  1.16258e+03  2.46390e+02 -5.01903e+01  8.13373e-01 -1.66692e-01  7.54328e-01
  1.16258e+03  2.46390e+02 -5.01027e+01  8.17954e-01 -1.66365e-01  7.52800e-01
  1.16258e+03  2.46390e+02 -4.76329e+01  9.90230e-01 -1.21982e-01  7.42050e-01
  1.16258e+03  2.46390e+02 -4.76239e+01  9.90894e-01 -1.21779e-01  7.41757e-01
  1.16258e+03  2.46390e+02 -4.75988e+01  9.90088e-01 -1.22477e-01  7.42337e-01
  1.16258e+03  2.46390e+02 -4.75590e+01  9.94155e-01 -1.21554e-01  7.42374e-01
  1.16258e+03  2.46390e+02 -4.73195e+01  1.01514e+00 -1.15478e-01  7.47244e-01
  1.16258e+03  2.46390e+02 -4.64423e+01  1.09415e+00 -8.94068e-02  7.59554e-01
  1.16258e+03  2.46390e+02 -4.57040e+01  1.16830e+00 -6.41010e-02  7.67926e-01
  1.16258e+03  2.46390e+02 -4.56153e+01  1.17552e+00 -6.18230e-02  7.68941e-01
  1.16258e+03  2.46390e+02 -4.53028e+01  1.19929e+00 -5.19171e-02  7.70670e-01
  1.16258e+03  2.46390e+02 -4.48864e+01  1.22413e+00 -4.33180e-02  7.72549e-01
  1.16258e+03  2.46390e+02 -4.31286e+01  1.24662e+00 -4.93775e-02  7.67867e-01
  1.16258e+03  2.46390e+02 -4.25669e+01  1.25236e+00 -5.31743e-02  7.61890e-01
  1.16258e+03  2.46390e+02 -4.08969e+01  1.26733e+00 -7.51505e-02  7.40899e-01
  1.16258e+03  2.46390e+02 -4.03831e+01  1.28154e+00 -6.85707e-02  7.37733e-01
  1.16258e+03  2.46390e+02 -4.01445e+01  1.28481e+00 -6.87751e-02  7.33102e-01
  1.16258e+03  2.46390e+02 -3.94011e+01  1.28632e+00 -7.45178e-02  7.22359e-01
  1.16258e+03  2.46390e+02 -3.83443e+01  1.29167e+00 -8.14124e-02  7.09330e-01
  1.16258e+03  2.46390e+02 -3.79809e+01  1.29253e+00 -8.33531e-02  7.04691e-01
  1.16258e+03  2.46390e+02 -3.62220e+01  1.29770e+00 -9.19520e-02  6.82720e-01
  1.16258e+03  2.46390e+02 -3.56886e+01  1.29800e+00 -9.51775e-02  6.74641e-01
  1.16258e+03  2.46390e+02 -3.39466e+01  1.30126e+00 -9.92626e-02  6.55794e-01
  1.16258e+03  2.46390e+02 -3.32397e+01  1.30188e+00 -1.01477e-01  6.46704e-01
  1.16258e+03  2.46390e+02 -3.20320e+01  1.30348e+00 -1.03180e-01  6.33647e-01
  1.16258e+03  2.46390e+02 -3.17415e+01  1.30349e+00 -1.03845e-01  6.29768e-01
  1.16258e+03  2.46390e+02 -3.05131e+01  1.30791e+00 -1.06175e-01  6.18379e-01
  1.16258e+03  2.46390e+02 -2.79415e+01  1.31504e+00 -1.11247e-01  5.94114e-01
  1.16258e+03  2.46390e+02 -2.75451e+01  1.31606e+00 -1.12017e-01  5.90422e-01
  1.16258e+03  2.46390e+02 -2.73842e+01  1.31622e+00 -1.12142e-01  5.89114e-01
  1.16258e+03  2.46390e+02 -2.63999e+01  1.31623e+00 -1.11795e-01  5.81303e-01
  1.16258e+03  2.46390e+02 -2.43395e+01  1.31433e+00 -1.10238e-01  5.62813e-01
  1.16258e+03  2.46390e+02 -2.34180e+01  1.31366e+00 -1.10315e-01  5.54806e-01
  1.16258e+03  2.46390e+02 -2.24627e+01  1.31416e+00 -1.10424e-01  5.46609e-01
  1.16258e+03  2.46390e+02 -2.00572e+01  1.31039e+00 -1.07071e-01  5.25187e-01
  1.16258e+03  2.46390e+02 -1.89250e+01  1.30730e+00 -1.05835e-01  5.18235e-01
  1.16258e+03  2.46390e+02 -1.82706e+01  1.30658e+00 -1.05743e-01  5.14164e-01
  1.16258e+03  2.46390e+02 -1.74427e+01  1.30629e+00 -1.05414e-01  5.08787e-01
  1.16258e+03  2.46390e+02 -1.58952e+01  1.30446e+00 -1.04411e-01  4.98604e-01
  1.16258e+03  2.46390e+02 -1.44359e+01  1.30266e+00 -1.03887e-01  4.89418e-01
  1.16258e+03  2.46390e+02 -1.24105e+01  1.30130e+00 -1.03842e-01  4.76388e-01
  1.16258e+03  2.46390e+02 -1.15467e+01  1.29955e+00 -1.03109e-01  4.70748e-01
  1.16258e+03  2.46390e+02 -1.07141e+01  1.29775e+00 -1.02160e-01  4.65754e-01
  1.16258e+03  2.46390e+02 -6.81877e+00  1.28984e+00 -9.87353e-02  4.48449e-01
  1.16258e+03  2.46390e+02 -5.44888e+00  1.28848e+00 -9.84260e-02  4.41729e-01
  1.16258e+03  2.46390e+02 -5.15292e+00  1.28810e+00 -9.83191e-02  4.40421e-01
  1.16258e+03  2.46390e+02 -4.84699e+00  1.28764e+00 -9.81597e-02  4.39037e-01
  1.16258e+03  2.46390e+02 -2.73825e+00  1.28470e+00 -9.71998e-02  4.28944e-01
  1.16258e+03  2.46390e+02 -1.55207e+00  1.28294e+00 -9.66374e-02  4.23071e-01
  1.16258e+03  2.46390e+02 -6.34239e-01  1.28085e+00 -9.59140e-02  4.18725e-01

ZONE T="024.2 case2a a7 medium, p1, wB, line2"
# extract along Z at X=1181.87, Y=246.386, from wing upper surface to at least 59mm high above surface
  1.18187e+03  2.46386e+02 -4.30152e+01  1.21779e+00 -3.32915e-01  6.95932e-01
  1.18187e+03  2.46386e+02 -4.29240e+01  1.26479e+00 -3.47589e-01  7.21802e-01
  1.18187e+03  2.46386e+02 -4.28005e+01  1.30312e+00 -3.62282e-01  7.43276e-01
  1.18187e+03  2.46386e+02 -4.26332e+01  1.33094e+00 -3.78046e-01  7.58213e-01
  1.18187e+03  2.46386e+02 -4.24060e+01  1.34564e+00 -3.95039e-01  7.66524e-01
  1.18187e+03  2.46386e+02 -4.23331e+01  1.34614e+00 -3.99443e-01  7.66415e-01
  1.18187e+03  2.46386e+02 -4.20970e+01  1.34791e+00 -4.13639e-01  7.66151e-01
  1.18187e+03  2.46386e+02 -4.16747e+01  1.33907e+00 -4.31140e-01  7.58673e-01
  1.18187e+03  2.46386e+02 -4.10945e+01  1.32776e+00 -4.43585e-01  7.42785e-01
  1.18187e+03  2.46386e+02 -4.02910e+01  1.32420e+00 -4.40154e-01  7.22714e-01
  1.18187e+03  2.46386e+02 -3.99660e+01  1.33144e+00 -4.32453e-01  7.15442e-01
  1.18187e+03  2.46386e+02 -3.92013e+01  1.34880e+00 -4.12397e-01  6.98481e-01
  1.18187e+03  2.46386e+02 -3.76961e+01  1.40570e+00 -3.55293e-01  6.76277e-01
  1.18187e+03  2.46386e+02 -3.64732e+01  1.45247e+00 -3.14989e-01  6.58611e-01
  1.18187e+03  2.46386e+02 -3.56211e+01  1.48275e+00 -2.86112e-01  6.46117e-01
  1.18187e+03  2.46386e+02 -3.27874e+01  1.51705e+00 -2.20601e-01  6.02573e-01
  1.18187e+03  2.46386e+02 -3.24865e+01  1.51740e+00 -2.19879e-01  5.98534e-01
  1.18187e+03  2.46386e+02 -3.14180e+01  1.51555e+00 -2.17695e-01  5.86516e-01
  1.18187e+03  2.46386e+02 -3.12800e+01  1.51532e+00 -2.17376e-01  5.84901e-01
  1.18187e+03  2.46386e+02 -2.95621e+01  1.51093e+00 -2.12272e-01  5.64523e-01
  1.18187e+03  2.46386e+02 -2.89996e+01  1.50883e+00 -2.10431e-01  5.59074e-01
  1.18187e+03  2.46386e+02 -2.82738e+01  1.50379e+00 -2.08365e-01  5.50611e-01
  1.18187e+03  2.46386e+02 -2.65601e+01  1.49138e+00 -2.03365e-01  5.30237e-01
  1.18187e+03  2.46386e+02 -2.59393e+01  1.48639e+00 -2.00932e-01  5.24150e-01
  1.18187e+03  2.46386e+02 -2.49405e+01  1.47798e+00 -1.96840e-01  5.14472e-01
  1.18187e+03  2.46386e+02 -2.29631e+01  1.46331e+00 -1.89539e-01  4.89542e-01
  1.18187e+03  2.46386e+02 -2.16299e+01  1.45383e+00 -1.84545e-01  4.77051e-01
  1.18187e+03  2.46386e+02 -1.97084e+01  1.43656e+00 -1.75707e-01  4.62443e-01
  1.18187e+03  2.46386e+02 -1.89487e+01  1.43096e+00 -1.73066e-01  4.56664e-01
  1.18187e+03  2.46386e+02 -1.72425e+01  1.42144e+00 -1.69458e-01  4.43630e-01
  1.18187e+03  2.46386e+02 -1.67468e+01  1.41818e+00 -1.68247e-01  4.39632e-01
  1.18187e+03  2.46386e+02 -1.55713e+01  1.40777e+00 -1.64086e-01  4.29145e-01
  1.18187e+03  2.46386e+02 -1.37224e+01  1.40001e+00 -1.59523e-01  4.20406e-01
  1.18187e+03  2.46386e+02 -1.24486e+01  1.39410e+00 -1.55930e-01  4.14083e-01
  1.18187e+03  2.46386e+02 -1.12287e+01  1.38936e+00 -1.53375e-01  4.08235e-01
  1.18187e+03  2.46386e+02 -1.07353e+01  1.38724e+00 -1.52261e-01  4.05742e-01
  1.18187e+03  2.46386e+02 -8.26585e+00  1.37606e+00 -1.45841e-01  3.95913e-01
  1.18187e+03  2.46386e+02 -6.92395e+00  1.37008e+00 -1.42463e-01  3.90414e-01
  1.18187e+03  2.46386e+02 -5.73002e+00  1.36500e+00 -1.39933e-01  3.86455e-01
  1.18187e+03  2.46386e+02 -4.25355e+00  1.35896e+00 -1.37113e-01  3.81065e-01
  1.18187e+03  2.46386e+02 -2.67533e+00  1.35350e+00 -1.34263e-01  3.73937e-01
  1.18187e+03  2.46386e+02 -1.57542e+00  1.34960e+00 -1.32341e-01  3.68879e-01
  1.18187e+03  2.46386e+02 -1.38236e+00  1.34868e+00 -1.32110e-01  3.68285e-01
  1.18187e+03  2.46386e+02  1.29829e+00  1.33767e+00 -1.26602e-01  3.59350e-01
  1.18187e+03  2.46386e+02  3.49337e+00  1.33066e+00 -1.23604e-01  3.54795e-01
  1.18187e+03  2.46386e+02  5.28123e+00  1.32475e+00 -1.21131e-01  3.49900e-01
  1.18187e+03  2.46386e+02  5.66370e+00  1.32404e+00 -1.20586e-01  3.48482e-01
  1.18187e+03  2.46386e+02  6.42123e+00  1.32155e+00 -1.19448e-01  3.46428e-01
  1.18187e+03  2.46386e+02  7.55406e+00  1.31805e+00 -1.17829e-01  3.43387e-01
  1.18187e+03  2.46386e+02  8.55333e+00  1.31522e+00 -1.16140e-01  3.40497e-01
  1.18187e+03  2.46386e+02  1.01763e+01  1.31090e+00 -1.13384e-01  3.35309e-01
  1.18187e+03  2.46386e+02  1.13110e+01  1.30764e+00 -1.11953e-01  3.33647e-01
  1.18187e+03  2.46386e+02  1.44329e+01  1.29948e+00 -1.07991e-01  3.27451e-01
  1.18187e+03  2.46386e+02  1.48955e+01  1.29825e+00 -1.07440e-01  3.26552e-01
  1.18187e+03  2.46386e+02  1.52118e+01  1.29728e+00 -1.07027e-01  3.25993e-01
  1.18187e+03  2.46386e+02  1.58764e+01  1.29529e+00 -1.06220e-01  3.24806e-01
  1.18187e+03  2.46386e+02  1.62060e+01  1.29454e+00 -1.05882e-01  3.24247e-01

ZONE T="024.2 case2a a7 medium, p1, wC, line1"
# extract along Z at X=1296.28, Y=246.386, from wing upper surface to at least 59mm high above surface
  1.29628e+03  2.46386e+02 -3.75781e+01  1.32087e-01 -1.51599e-02 -5.32415e-03
  1.29628e+03  2.46386e+02 -3.75706e+01  1.80309e-01 -2.12854e-02 -7.28730e-03
  1.29628e+03  2.46386e+02 -3.75603e+01  2.39324e-01 -2.91586e-02 -9.67128e-03
  1.29628e+03  2.46386e+02 -3.75463e+01  3.05858e-01 -3.85236e-02 -1.23839e-02
  1.29628e+03  2.46386e+02 -3.75273e+01  3.72898e-01 -4.85495e-02 -1.50836e-02
  1.29628e+03  2.46386e+02 -3.75015e+01  4.31935e-01 -5.80529e-02 -1.74757e-02
  1.29628e+03  2.46386e+02 -3.74663e+01  4.79589e-01 -6.64924e-02 -1.93338e-02
  1.29628e+03  2.46386e+02 -3.74184e+01  5.18839e-01 -7.43190e-02 -2.08501e-02
  1.29628e+03  2.46386e+02 -3.73533e+01  5.53993e-01 -8.23278e-02 -2.20816e-02
  1.29628e+03  2.46386e+02 -3.72646e+01  5.88052e-01 -9.12225e-02 -2.32479e-02
  1.29628e+03  2.46386e+02 -3.71439e+01  6.22924e-01 -1.01650e-01 -2.42399e-02
  1.29628e+03  2.46386e+02 -3.69797e+01  6.60075e-01 -1.14293e-01 -2.52354e-02
  1.29628e+03  2.46386e+02 -3.67562e+01  7.01023e-01 -1.30014e-01 -2.59875e-02
  1.29628e+03  2.46386e+02 -3.64521e+01  7.47382e-01 -1.49746e-01 -2.66835e-02
  1.29628e+03  2.46386e+02 -3.60382e+01  8.00726e-01 -1.74256e-01 -2.68498e-02
  1.29628e+03  2.46386e+02 -3.54749e+01  8.61878e-01 -2.03075e-01 -2.66122e-02
  1.29628e+03  2.46386e+02 -3.47084e+01  9.30345e-01 -2.33037e-01 -2.51093e-02
  1.29628e+03  2.46386e+02 -3.36653e+01  1.00423e+00 -2.55914e-01 -2.26618e-02
  1.29628e+03  2.46386e+02 -3.22459e+01  1.08351e+00 -2.59175e-01 -1.87069e-02
  1.29628e+03  2.46386e+02 -3.03143e+01  1.17398e+00 -2.29606e-01 -1.52732e-02
  1.29628e+03  2.46386e+02 -2.76859e+01  1.28503e+00 -1.64548e-01 -1.18650e-02
  1.29628e+03  2.46386e+02 -2.69578e+01  1.29137e+00 -1.60578e-01 -1.06088e-02
  1.29628e+03  2.46386e+02 -2.48368e+01  1.30940e+00 -1.49016e-01 -7.23328e-03
  1.29628e+03  2.46386e+02 -2.41129e+01  1.31513e+00 -1.45305e-01 -6.32203e-03
  1.29628e+03  2.46386e+02 -2.34966e+01  1.31899e+00 -1.43189e-01 -5.02012e-03
  1.29628e+03  2.46386e+02 -2.04331e+01  1.33574e+00 -1.33583e-01  6.83254e-04
  1.29628e+03  2.46386e+02 -2.01541e+01  1.33724e+00 -1.32654e-01  1.30293e-03
  1.29628e+03  2.46386e+02 -1.86800e+01  1.34548e+00 -1.28249e-01  4.31217e-03
  1.29628e+03  2.46386e+02 -1.54473e+01  1.35891e+00 -1.20133e-01  1.05463e-02
  1.29628e+03  2.46386e+02 -1.51971e+01  1.35999e+00 -1.19510e-01  1.10326e-02
  1.29628e+03  2.46386e+02 -1.48044e+01  1.36049e+00 -1.18997e-01  1.17345e-02
  1.29628e+03  2.46386e+02 -1.30719e+01  1.36249e+00 -1.16879e-01  1.48294e-02
  1.29628e+03  2.46386e+02 -1.07572e+01  1.36366e+00 -1.14699e-01  1.88681e-02
  1.29628e+03  2.46386e+02 -7.87574e+00  1.35903e+00 -1.12765e-01  2.29112e-02
  1.29628e+03  2.46386e+02 -6.20388e+00  1.35607e+00 -1.11660e-01  2.54338e-02
  1.29628e+03  2.46386e+02 -5.90915e+00  1.35562e+00 -1.11487e-01  2.59167e-02
  1.29628e+03  2.46386e+02 -5.86383e+00  1.35557e+00 -1.11465e-01  2.60053e-02
  1.29628e+03  2.46386e+02 -5.59193e+00  1.35494e+00 -1.11375e-01  2.64844e-02
  1.29628e+03  2.46386e+02 -2.59367e+00  1.34907e+00 -1.11393e-01  3.25648e-02
  1.29628e+03  2.46386e+02 -6.89951e-01  1.34533e+00 -1.10631e-01  3.55181e-02
  1.29628e+03  2.46386e+02 -2.86836e-01  1.34452e+00 -1.10498e-01  3.61295e-02
  1.29628e+03  2.46386e+02 -1.81984e-01  1.34439e+00 -1.10563e-01  3.63659e-02
  1.29628e+03  2.46386e+02  3.84990e-01  1.34338e+00 -1.10349e-01  3.71142e-02
  1.29628e+03  2.46386e+02  2.74908e+00  1.33927e+00 -1.09689e-01  4.06003e-02
  1.29628e+03  2.46386e+02  3.81611e+00  1.33709e+00 -1.08835e-01  4.22716e-02
  1.29628e+03  2.46386e+02  6.47389e+00  1.33234e+00 -1.07317e-01  4.60696e-02
  1.29628e+03  2.46386e+02  7.23135e+00  1.33057e+00 -1.06493e-01  4.72135e-02
  1.29628e+03  2.46386e+02  1.41757e+01  1.32080e+00 -1.02416e-01  5.65058e-02
  1.29628e+03  2.46386e+02  1.44245e+01  1.32048e+00 -1.02270e-01  5.68334e-02
  1.29628e+03  2.46386e+02  1.45199e+01  1.32036e+00 -1.02220e-01  5.69690e-02
  1.29628e+03  2.46386e+02  1.45448e+01  1.32033e+00 -1.02207e-01  5.70083e-02
  1.29628e+03  2.46386e+02  2.10737e+01  1.31348e+00 -9.99708e-02  6.55707e-02
  1.29628e+03  2.46386e+02  2.16853e+01  1.31256e+00 -9.95341e-02  6.63124e-02
  1.29628e+03  2.46386e+02  2.19635e+01  1.31209e+00 -9.92580e-02  6.65259e-02

ZONE T="024.2 case2a a7 medium, p1, wD, line1"
# extract along Z at X=1461.48, Y=246.386, from wing upper surface to at least 59mm high above surface
  1.46148e+03  2.46386e+02 -5.12137e+01  3.76562e-01  1.46892e-02 -4.47690e-02
  1.46148e+03  2.46386e+02 -5.11652e+01  4.13372e-01  1.43744e-02 -4.92610e-02
  1.46148e+03  2.46386e+02 -5.10993e+01  4.44677e-01  1.33574e-02 -5.30560e-02
  1.46148e+03  2.46386e+02 -5.10095e+01  4.73386e-01  1.15899e-02 -5.65893e-02
  1.46148e+03  2.46386e+02 -5.08874e+01  5.01360e-01  8.90867e-03 -5.99730e-02
  1.46148e+03  2.46386e+02 -5.07212e+01  5.29673e-01  5.14093e-03 -6.34500e-02
  1.46148e+03  2.46386e+02 -5.04950e+01  5.59129e-01  1.92746e-05 -6.69408e-02
  1.46148e+03  2.46386e+02 -5.01872e+01  5.90596e-01 -6.68354e-03 -7.07022e-02
  1.46148e+03  2.46386e+02 -4.97684e+01  6.25383e-01 -1.53239e-02 -7.46199e-02
  1.46148e+03  2.46386e+02 -4.91985e+01  6.65518e-01 -2.60041e-02 -7.91488e-02
  1.46148e+03  2.46386e+02 -4.84230e+01  7.14274e-01 -3.86932e-02 -8.42397e-02
  1.46148e+03  2.46386e+02 -4.73678e+01  7.76828e-01 -5.20443e-02 -9.07520e-02
  1.46148e+03  2.46386e+02 -4.59323e+01  8.60671e-01 -6.36306e-02 -9.87881e-02
  1.46148e+03  2.46386e+02 -4.39795e+01  9.74596e-01 -6.81700e-02 -1.09673e-01
  1.46148e+03  2.46386e+02 -4.13236e+01  1.12153e+00 -6.23176e-02 -1.23104e-01
  1.46148e+03  2.46386e+02 -4.12253e+01  1.12268e+00 -6.22232e-02 -1.23118e-01
  1.46148e+03  2.46386e+02 -4.00567e+01  1.13567e+00 -6.12807e-02 -1.23213e-01
  1.46148e+03  2.46386e+02 -3.77555e+01  1.15990e+00 -5.98704e-02 -1.23478e-01
  1.46148e+03  2.46386e+02 -3.77161e+01  1.16032e+00 -5.98376e-02 -1.23481e-01
  1.46148e+03  2.46386e+02 -3.76708e+01  1.16074e+00 -5.97571e-02 -1.23456e-01
  1.46148e+03  2.46386e+02 -3.50846e+01  1.18524e+00 -5.46695e-02 -1.21961e-01
  1.46148e+03  2.46386e+02 -3.36781e+01  1.19860e+00 -5.24257e-02 -1.21030e-01
  1.46148e+03  2.46386e+02 -3.36707e+01  1.19867e+00 -5.24126e-02 -1.21023e-01
  1.46148e+03  2.46386e+02 -3.36653e+01  1.19872e+00 -5.24009e-02 -1.21023e-01
  1.46148e+03  2.46386e+02 -3.36208e+01  1.19907e+00 -5.22967e-02 -1.21033e-01
  1.46148e+03  2.46386e+02 -3.26633e+01  1.20654e+00 -5.00638e-02 -1.21230e-01
  1.46148e+03  2.46386e+02 -2.94244e+01  1.23084e+00 -4.33220e-02 -1.20273e-01
  1.46148e+03  2.46386e+02 -2.83731e+01  1.23877e+00 -4.09010e-02 -1.20020e-01
  1.46148e+03  2.46386e+02 -2.69700e+01  1.24653e+00 -3.71639e-02 -1.19250e-01
  1.46148e+03  2.46386e+02 -2.63924e+01  1.24962e+00 -3.62230e-02 -1.18804e-01
  1.46148e+03  2.46386e+02 -2.36597e+01  1.26013e+00 -3.06912e-02 -1.17075e-01
  1.46148e+03  2.46386e+02 -2.16199e+01  1.26486e+00 -2.80528e-02 -1.16005e-01
  1.46148e+03  2.46386e+02 -2.13655e+01  1.26554e+00 -2.76963e-02 -1.15889e-01
  1.46148e+03  2.46386e+02 -2.09625e+01  1.26592e+00 -2.74955e-02 -1.15318e-01
  1.46148e+03  2.46386e+02 -1.99176e+01  1.26747e+00 -2.69460e-02 -1.14722e-01
  1.46148e+03  2.46386e+02 -1.91113e+01  1.26923e+00 -2.66033e-02 -1.13871e-01
  1.46148e+03  2.46386e+02 -1.84152e+01  1.27015e+00 -2.62899e-02 -1.13169e-01
  1.46148e+03  2.46386e+02 -1.67203e+01  1.27080e+00 -2.57092e-02 -1.11355e-01
  1.46148e+03  2.46386e+02 -1.61945e+01  1.27096e+00 -2.55183e-02 -1.10801e-01
  1.46148e+03  2.46386e+02 -1.59542e+01  1.27100e+00 -2.54802e-02 -1.10547e-01
  1.46148e+03  2.46386e+02 -1.50056e+01  1.27083e+00 -2.53525e-02 -1.09602e-01
  1.46148e+03  2.46386e+02 -1.38544e+01  1.27077e+00 -2.55739e-02 -1.08663e-01
  1.46148e+03  2.46386e+02 -1.22229e+01  1.26999e+00 -2.59104e-02 -1.07175e-01
  1.46148e+03  2.46386e+02 -9.77950e+00  1.26775e+00 -2.67160e-02 -1.04299e-01
  1.46148e+03  2.46386e+02 -9.69953e+00  1.26765e+00 -2.67310e-02 -1.04187e-01
  1.46148e+03  2.46386e+02 -5.99197e+00  1.26374e+00 -2.80906e-02 -9.96936e-02
  1.46148e+03  2.46386e+02 -4.80040e+00  1.26260e+00 -2.87965e-02 -9.83348e-02
  1.46148e+03  2.46386e+02 -4.41740e+00  1.26224e+00 -2.90830e-02 -9.79636e-02
  1.46148e+03  2.46386e+02 -3.65122e+00  1.26141e+00 -2.96001e-02 -9.70308e-02
  1.46148e+03  2.46386e+02 -2.25396e+00  1.25995e+00 -3.03525e-02 -9.54966e-02
  1.46148e+03  2.46386e+02  3.61919e-02  1.25747e+00 -3.14738e-02 -9.28088e-02
  1.46148e+03  2.46386e+02  4.74877e-01  1.25706e+00 -3.15405e-02 -9.23370e-02
  1.46148e+03  2.46386e+02  3.03814e+00  1.25483e+00 -3.16621e-02 -8.95668e-02
  1.46148e+03  2.46386e+02  3.90775e+00  1.25426e+00 -3.17810e-02 -8.91210e-02
  1.46148e+03  2.46386e+02  6.09776e+00  1.25219e+00 -3.22160e-02 -8.67669e-02
  1.46148e+03  2.46386e+02  6.43632e+00  1.25189e+00 -3.22995e-02 -8.64341e-02
  1.46148e+03  2.46386e+02  6.83735e+00  1.25158e+00 -3.23934e-02 -8.59795e-02
  1.46148e+03  2.46386e+02  8.06051e+00  1.25047e+00 -3.28169e-02 -8.43263e-02

ZONE T="024.2 case2a a7 medium, p2, wB, line1"
# extract along Z at X=1635.09, Y=979.596, from wing upper surface to at least 59mm high above surface
  1.63509e+03  9.79596e+02 -7.83626e+00  1.18461e+00 -3.21850e-01  3.84545e-01
  1.63509e+03  9.79596e+02 -7.80133e+00  1.29403e+00 -3.54279e-01  4.20725e-01
  1.63509e+03  9.79596e+02 -7.75532e+00  1.41035e+00 -3.88784e-01  4.59931e-01
  1.63509e+03  9.79596e+02 -7.69474e+00  1.53082e+00 -4.24072e-01  5.00489e-01
  1.63509e+03  9.79596e+02 -7.61496e+00  1.64252e+00 -4.55607e-01  5.39091e-01
  1.63509e+03  9.79596e+02 -7.50990e+00  1.72378e+00 -4.76557e-01  5.66934e-01
  1.63509e+03  9.79596e+02 -7.37154e+00  1.75924e+00 -4.82756e-01  5.79653e-01
  1.63509e+03  9.79596e+02 -7.18932e+00  1.75615e+00 -4.77607e-01  5.77718e-01
  1.63509e+03  9.79596e+02 -6.94933e+00  1.73272e+00 -4.67991e-01  5.69845e-01
  1.63509e+03  9.79596e+02 -6.92476e+00  1.73028e+00 -4.67287e-01  5.68964e-01
  1.63509e+03  9.79596e+02 -6.63439e+00  1.70115e+00 -4.58975e-01  5.58624e-01
  1.63509e+03  9.79596e+02 -6.21975e+00  1.66527e+00 -4.52736e-01  5.48232e-01
  1.63509e+03  9.79596e+02 -5.67361e+00  1.63206e+00 -4.50268e-01  5.36772e-01
  1.63509e+03  9.79596e+02 -4.95425e+00  1.61307e+00 -4.50248e-01  5.30682e-01
  1.63509e+03  9.79596e+02 -4.14259e+00  1.61229e+00 -4.46098e-01  5.26256e-01
  1.63509e+03  9.79596e+02 -4.00719e+00  1.61214e+00 -4.45360e-01  5.25621e-01
  1.63509e+03  9.79596e+02 -2.76368e+00  1.61854e+00 -4.27233e-01  5.22409e-01
  1.63509e+03  9.79596e+02 -1.92492e+00  1.61670e+00 -4.23071e-01  5.18342e-01
  1.63509e+03  9.79596e+02 -1.30777e+00  1.61502e+00 -4.20352e-01  5.15853e-01
  1.63509e+03  9.79596e+02 -1.12831e+00  1.61458e+00 -4.19583e-01  5.15078e-01
  1.63509e+03  9.79596e+02 -6.86535e-01  1.61240e+00 -4.17252e-01  5.10813e-01
  1.63509e+03  9.79596e+02 -1.54685e-01  1.60871e+00 -4.14080e-01  5.05508e-01
  1.63509e+03  9.79596e+02  3.61497e-01  1.60728e+00 -4.11618e-01  5.00758e-01
  1.63509e+03  9.79596e+02  6.36019e-01  1.60566e+00 -4.09946e-01  4.98539e-01
  1.63509e+03  9.79596e+02  8.83687e-01  1.60363e+00 -4.08390e-01  4.96522e-01
  1.63509e+03  9.79596e+02  1.13970e+00  1.59813e+00 -4.04665e-01  4.94883e-01
  1.63509e+03  9.79596e+02  1.81777e+00  1.58466e+00 -3.95039e-01  4.90617e-01
  1.63509e+03  9.79596e+02  2.32642e+00  1.57307e+00 -3.87193e-01  4.86643e-01
  1.63509e+03  9.79596e+02  2.92920e+00  1.56301e+00 -3.81348e-01  4.80354e-01
  1.63509e+03  9.79596e+02  4.51226e+00  1.54630e+00 -3.70750e-01  4.66629e-01
  1.63509e+03  9.79596e+02  5.08239e+00  1.54028e+00 -3.67384e-01  4.61871e-01
  1.63509e+03  9.79596e+02  5.81776e+00  1.53348e+00 -3.62409e-01  4.55463e-01
  1.63509e+03  9.79596e+02  6.52478e+00  1.52672e+00 -3.57789e-01  4.48831e-01
  1.63509e+03  9.79596e+02  7.47384e+00  1.51769e+00 -3.51849e-01  4.42414e-01
  1.63509e+03  9.79596e+02  7.68633e+00  1.51522e+00 -3.50473e-01  4.40571e-01
  1.63509e+03  9.79596e+02  8.54294e+00  1.50791e+00 -3.45230e-01  4.35925e-01
  1.63509e+03  9.79596e+02  1.02441e+01  1.49267e+00 -3.34824e-01  4.25819e-01
  1.63509e+03  9.79596e+02  1.03349e+01  1.49181e+00 -3.34266e-01  4.25263e-01
  1.63509e+03  9.79596e+02  1.03460e+01  1.49175e+00 -3.34212e-01  4.25182e-01
  1.63509e+03  9.79596e+02  1.03602e+01  1.49161e+00 -3.34147e-01  4.25064e-01
  1.63509e+03  9.79596e+02  1.04209e+01  1.49124e+00 -3.33906e-01  4.24709e-01
  1.63509e+03  9.79596e+02  1.10418e+01  1.48754e+00 -3.31641e-01  4.20202e-01
  1.63509e+03  9.79596e+02  1.22062e+01  1.48044e+00 -3.27342e-01  4.11800e-01
  1.63509e+03  9.79596e+02  1.26714e+01  1.47705e+00 -3.25471e-01  4.08603e-01
  1.63509e+03  9.79596e+02  1.29275e+01  1.47454e+00 -3.23746e-01  4.07522e-01
  1.63509e+03  9.79596e+02  1.30292e+01  1.47360e+00 -3.23226e-01  4.06869e-01
  1.63509e+03  9.79596e+02  1.46234e+01  1.46003e+00 -3.15378e-01  3.97368e-01
  1.63509e+03  9.79596e+02  1.68255e+01  1.44729e+00 -3.05968e-01  3.84329e-01
  1.63509e+03  9.79596e+02  1.68402e+01  1.44722e+00 -3.05909e-01  3.84248e-01
  1.63509e+03  9.79596e+02  1.68455e+01  1.44718e+00 -3.05884e-01  3.84216e-01
  1.63509e+03  9.79596e+02  1.68626e+01  1.44707e+00 -3.05800e-01  3.84111e-01
  1.63509e+03  9.79596e+02  1.70249e+01  1.44602e+00 -3.04988e-01  3.83139e-01
  1.63509e+03  9.79596e+02  1.71027e+01  1.44552e+00 -3.04681e-01  3.82841e-01
  1.63509e+03  9.79596e+02  1.72882e+01  1.44437e+00 -3.03970e-01  3.81946e-01
  1.63509e+03  9.79596e+02  1.97042e+01  1.42839e+00 -2.93866e-01  3.72162e-01
  1.63509e+03  9.79596e+02  2.07699e+01  1.42187e+00 -2.90007e-01  3.66271e-01
  1.63509e+03  9.79596e+02  2.10552e+01  1.42060e+00 -2.89164e-01  3.65002e-01
  1.63509e+03  9.79596e+02  2.28203e+01  1.41314e+00 -2.84556e-01  3.59738e-01
  1.63509e+03  9.79596e+02  2.34385e+01  1.40961e+00 -2.82413e-01  3.57585e-01
  1.63509e+03  9.79596e+02  2.40503e+01  1.40642e+00 -2.80279e-01  3.55876e-01
  1.63509e+03  9.79596e+02  2.46264e+01  1.40373e+00 -2.78221e-01  3.53390e-01
  1.63509e+03  9.79596e+02  2.58438e+01  1.39698e+00 -2.73401e-01  3.47893e-01
  1.63509e+03  9.79596e+02  2.68215e+01  1.39281e+00 -2.70535e-01  3.44646e-01
  1.63509e+03  9.79596e+02  2.74757e+01  1.38875e+00 -2.68062e-01  3.41554e-01
  1.63509e+03  9.79596e+02  2.81760e+01  1.38516e+00 -2.65528e-01  3.38636e-01
  1.63509e+03  9.79596e+02  2.95371e+01  1.37987e+00 -2.61323e-01  3.34713e-01
  1.63509e+03  9.79596e+02  3.09271e+01  1.37466e+00 -2.57765e-01  3.31290e-01
  1.63509e+03  9.79596e+02  3.14008e+01  1.37248e+00 -2.56349e-01  3.29818e-01
  1.63509e+03  9.79596e+02  3.30693e+01  1.36783e+00 -2.53053e-01  3.23511e-01
  1.63509e+03  9.79596e+02  3.39526e+01  1.36501e+00 -2.51306e-01  3.19890e-01
  1.63509e+03  9.79596e+02  3.44132e+01  1.36325e+00 -2.50209e-01  3.18533e-01
  1.63509e+03  9.79596e+02  3.52397e+01  1.35978e+00 -2.48215e-01  3.15806e-01
  1.63509e+03  9.79596e+02  3.66076e+01  1.35533e+00 -2.45237e-01  3.11557e-01
  1.63509e+03  9.79596e+02  3.77657e+01  1.35146e+00 -2.42634e-01  3.07775e-01
  1.63509e+03  9.79596e+02  3.84762e+01  1.34904e+00 -2.41055e-01  3.05369e-01
  1.63509e+03  9.79596e+02  3.85999e+01  1.34862e+00 -2.40809e-01  3.05058e-01
  1.63509e+03  9.79596e+02  3.91451e+01  1.34669e+00 -2.39535e-01  3.03791e-01
  1.63509e+03  9.79596e+02  3.93812e+01  1.34583e+00 -2.38983e-01  3.03150e-01
  1.63509e+03  9.79596e+02  4.15082e+01  1.33824e+00 -2.34264e-01  2.98383e-01
  1.63509e+03  9.79596e+02  4.28147e+01  1.33345e+00 -2.31316e-01  2.95621e-01
  1.63509e+03  9.79596e+02  4.34818e+01  1.33128e+00 -2.29972e-01  2.94095e-01
  1.63509e+03  9.79596e+02  4.49601e+01  1.32737e+00 -2.27524e-01  2.90357e-01
  1.63509e+03  9.79596e+02  4.68437e+01  1.32261e+00 -2.24506e-01  2.85554e-01
  1.63509e+03  9.79596e+02  4.88402e+01  1.31766e+00 -2.21357e-01  2.80305e-01
  1.63509e+03  9.79596e+02  4.98665e+01  1.31532e+00 -2.19907e-01  2.77420e-01
  1.63509e+03  9.79596e+02  5.19232e+01  1.31025e+00 -2.16756e-01  2.72871e-01

ZONE T="024.2 case2a a7 medium, p2, wB, line2"
# extract along Z at X=1648.20, Y=979.596, from wing upper surface to at least 59mm high above surface