TITLE = "015.1"

VARIABLES = "X" "Y" "Z" "u/Uinf" "v/Uinf" "w/Uinf"

##
## CFD-Post Generic Export
##
## CFX-14.5 build 2012.09.19-21.47
##
## Generated on:  2013/05/16 14:03:44
##
## Generated from case(s): Case HiLiPW2_Case1Config2_Grid_Bm_HighRe_00.0deg_002
##

ZONE T="015.1 Case2b a0.0 medium, p1, wB, line1"

1.16258001e+000, 2.46386006e-001, -6.00286983e-002, 2.65946016e-002, 2.68295556e-001, -2.93497980e-001
1.16258001e+000, 2.46386006e-001, -5.98286986e-002, 3.76410484e-002, 2.62090981e-001, -2.76588500e-001
1.16258001e+000, 2.46386006e-001, -5.96286990e-002, 4.88438681e-002, 2.54976809e-001, -2.59119511e-001
1.16258001e+000, 2.46386006e-001, -5.94286993e-002, 6.15793206e-002, 2.46719614e-001, -2.40292981e-001
1.16258001e+000, 2.46386006e-001, -5.92286997e-002, 7.52185062e-002, 2.37386763e-001, -2.19310582e-001
1.16258001e+000, 2.46386006e-001, -5.90287000e-002, 8.93752426e-002, 2.27632299e-001, -1.98220223e-001
1.16258001e+000, 2.46386006e-001, -5.88287003e-002, 1.04407899e-001, 2.17403352e-001, -1.76809222e-001
1.16258001e+000, 2.46386006e-001, -5.86287007e-002, 1.21209592e-001, 2.05516621e-001, -1.52212054e-001
1.16258001e+000, 2.46386006e-001, -5.84287010e-002, 1.38033077e-001, 1.93681046e-001, -1.28542885e-001
1.16258001e+000, 2.46386006e-001, -5.82287014e-002, 1.54898077e-001, 1.81880340e-001, -1.05804354e-001
1.16258001e+000, 2.46386006e-001, -5.80287017e-002, 1.72494948e-001, 1.69886485e-001, -8.24939609e-002
1.16258001e+000, 2.46386006e-001, -5.78287020e-002, 1.90599382e-001, 1.58030465e-001, -5.89781590e-002
1.16258001e+000, 2.46386006e-001, -5.76287024e-002, 2.08251283e-001, 1.46516442e-001, -3.63842174e-002
1.16258001e+000, 2.46386006e-001, -5.74287027e-002, 2.25442648e-001, 1.35362491e-001, -1.47536062e-002
1.16258001e+000, 2.46386006e-001, -5.72287031e-002, 2.42024511e-001, 1.24680147e-001, 5.76813705e-003
1.16258001e+000, 2.46386006e-001, -5.70287034e-002, 2.57959992e-001, 1.14438690e-001, 2.52780300e-002
1.16258001e+000, 2.46386006e-001, -5.68287037e-002, 2.71537572e-001, 1.06121421e-001, 4.22110632e-002
1.16258001e+000, 2.46386006e-001, -5.66287041e-002, 2.82540888e-001, 9.95697975e-002, 5.57989478e-002
1.16258001e+000, 2.46386006e-001, -5.64287044e-002, 2.93818325e-001, 9.28224772e-002, 6.99239224e-002
1.16258001e+000, 2.46386006e-001, -5.62287048e-002, 3.05218786e-001, 8.59891623e-002, 8.42194557e-002
1.16258001e+000, 2.46386006e-001, -5.60287051e-002, 3.15833211e-001, 7.95419440e-002, 9.72548127e-002
1.16258001e+000, 2.46386006e-001, -5.58287054e-002, 3.25369358e-001, 7.36438930e-002, 1.08600661e-001
1.16258001e+000, 2.46386006e-001, -5.56287058e-002, 3.34781498e-001, 6.78532347e-002, 1.19975917e-001
1.16258001e+000, 2.46386006e-001, -5.54287061e-002, 3.44292641e-001, 6.19973242e-002, 1.31653175e-001
1.16258001e+000, 2.46386006e-001, -5.52287064e-002, 3.50958019e-001, 5.77372983e-002, 1.41100556e-001
1.16258001e+000, 2.46386006e-001, -5.50287068e-002, 3.56929094e-001, 5.39231673e-002, 1.50141925e-001
1.16258001e+000, 2.46386006e-001, -5.48287071e-002, 3.62900198e-001, 5.01090400e-002, 1.59183294e-001
1.16258001e+000, 2.46386006e-001, -5.46287075e-002, 3.68871301e-001, 4.62949164e-002, 1.68224663e-001
1.16258001e+000, 2.46386006e-001, -5.44287078e-002, 3.74769509e-001, 4.26148437e-002, 1.77535355e-001
1.16258001e+000, 2.46386006e-001, -5.42287081e-002, 3.83054674e-001, 3.73767838e-002, 1.87956706e-001
1.16258001e+000, 2.46386006e-001, -5.40287085e-002, 3.91339839e-001, 3.21387276e-002, 1.98378041e-001
1.16258001e+000, 2.46386006e-001, -5.38287088e-002, 4.00020421e-001, 2.65871435e-002, 2.08321348e-001
1.16258001e+000, 2.46386006e-001, -5.36287092e-002, 4.09973860e-001, 2.00262424e-002, 2.16725767e-001
1.16258001e+000, 2.46386006e-001, -5.34287095e-002, 4.19712126e-001, 1.32446634e-002, 2.26313457e-001
1.16258001e+000, 2.46386006e-001, -5.32287098e-002, 4.29429770e-001, 6.44202158e-003, 2.36014083e-001
1.16258001e+000, 2.46386006e-001, -5.30287102e-002, 4.40954119e-001, 5.90221956e-004, 2.45517045e-001
1.16258001e+000, 2.46386006e-001, -5.28287105e-002, 4.57059145e-001, -2.85075605e-003, 2.54518867e-001
1.16258001e+000, 2.46386006e-001, -5.26287109e-002, 4.73164201e-001, -6.29173405e-003, 2.63520658e-001
1.16258001e+000, 2.46386006e-001, -5.24287112e-002, 4.88494068e-001, -1.02426056e-002, 2.72284687e-001
1.16258001e+000, 2.46386006e-001, -5.22287115e-002, 5.03173590e-001, -1.46212159e-002, 2.80849159e-001
1.16258001e+000, 2.46386006e-001, -5.20287119e-002, 5.16251206e-001, -1.96284000e-002, 2.89613158e-001
1.16258001e+000, 2.46386006e-001, -5.18287122e-002, 5.27280807e-001, -2.54391748e-002, 2.98632234e-001
1.16258001e+000, 2.46386006e-001, -5.16287126e-002, 5.39596260e-001, -3.16373371e-002, 3.07840288e-001
1.16258001e+000, 2.46386006e-001, -5.14287129e-002, 5.54890990e-001, -3.87330428e-002, 3.17486405e-001
1.16258001e+000, 2.46386006e-001, -5.12287132e-002, 5.81012726e-001, -3.86414714e-002, 3.28064561e-001
1.16258001e+000, 2.46386006e-001, -5.10287136e-002, 6.12104297e-001, -3.52508277e-002, 3.39070499e-001
1.16258001e+000, 2.46386006e-001, -5.08287139e-002, 6.43195808e-001, -3.18601839e-002, 3.50076437e-001
1.16258001e+000, 2.46386006e-001, -5.06287143e-002, 6.74287319e-001, -2.84695402e-002, 3.61082345e-001
1.16258001e+000, 2.46386006e-001, -5.04287146e-002, 6.99625432e-001, -2.87820958e-002, 3.71468425e-001
1.16258001e+000, 2.46386006e-001, -5.02287149e-002, 7.21466362e-001, -3.02473456e-002, 3.81270170e-001
1.16258001e+000, 2.46386006e-001, -5.00287153e-002, 7.45126963e-001, -2.91092303e-002, 3.90997231e-001
1.16258001e+000, 2.46386006e-001, -4.98287156e-002, 7.68787563e-001, -2.79711112e-002, 4.00724292e-001
1.16258001e+000, 2.46386006e-001, -4.96287160e-002, 7.92448163e-001, -2.68329978e-002, 4.10451382e-001
1.16258001e+000, 2.46386006e-001, -4.94287163e-002, 8.16108704e-001, -2.56948806e-002, 4.20178473e-001
1.16258001e+000, 2.46386006e-001, -4.92287166e-002, 8.39769363e-001, -2.45567653e-002, 4.29905534e-001
1.16258001e+000, 2.46386006e-001, -4.90287170e-002, 8.63594115e-001, -2.22896636e-002, 4.39856261e-001
1.16258001e+000, 2.46386006e-001, -4.88287173e-002, 8.80783141e-001, -1.90203283e-002, 4.47867572e-001
1.16258001e+000, 2.46386006e-001, -4.86287177e-002, 8.97584319e-001, -1.58113092e-002, 4.55701023e-001
1.16258001e+000, 2.46386006e-001, -4.84287180e-002, 9.14385438e-001, -1.26022948e-002, 4.63534415e-001
1.16258001e+000, 2.46386006e-001, -4.82287183e-002, 9.31186497e-001, -9.39327665e-003, 4.71367776e-001
1.16258001e+000, 2.46386006e-001, -4.80287187e-002, 9.47987676e-001, -6.18426129e-003, 4.79201227e-001
1.16258001e+000, 2.46386006e-001, -4.78287190e-002, 9.63887811e-001, -3.18259513e-003, 4.86575663e-001
1.16258001e+000, 2.46386006e-001, -4.76287194e-002, 9.68575239e-001, -2.76162405e-003, 4.88237798e-001
1.16258001e+000, 2.46386006e-001, -4.74287197e-002, 9.73262727e-001, -2.34065321e-003, 4.89900023e-001
1.16258001e+000, 2.46386006e-001, -4.72287200e-002, 9.77950215e-001, -1.91968307e-003, 4.91562217e-001
1.16258001e+000, 2.46386006e-001, -4.70287204e-002, 9.82637644e-001, -1.49871118e-003, 4.93224353e-001
1.16258001e+000, 2.46386006e-001, -4.68287207e-002, 9.89276290e-001, -7.22295605e-004, 4.95737553e-001
1.16258001e+000, 2.46386006e-001, -4.66287211e-002, 9.98096764e-001, 4.51614149e-004, 4.99202430e-001
1.16258001e+000, 2.46386006e-001, -4.64287214e-002, 1.00691736e+000, 1.62552483e-003, 5.02667248e-001
1.16258001e+000, 2.46386006e-001, -4.62287217e-002, 1.01573777e+000, 2.79943459e-003, 5.06132126e-001
1.16258001e+000, 2.46386006e-001, -4.60287221e-002, 1.02455831e+000, 3.97334527e-003, 5.09596944e-001
1.16258001e+000, 2.46386006e-001, -4.58287224e-002, 1.03337884e+000, 5.14725689e-003, 5.13061881e-001
1.16258001e+000, 2.46386006e-001, -4.56287228e-002, 1.04219949e+000, 6.32116757e-003, 5.16526699e-001
1.16258001e+000, 2.46386006e-001, -4.54287231e-002, 1.05102003e+000, 7.49507779e-003, 5.19991577e-001
1.16258001e+000, 2.46386006e-001, -4.52287234e-002, 1.05984044e+000, 8.66898708e-003, 5.23456395e-001
1.16258001e+000, 2.46386006e-001, -4.50287238e-002, 1.06866109e+000, 9.84289870e-003, 5.26921332e-001
1.16258001e+000, 2.46386006e-001, -4.48287241e-002, 1.07491112e+000, 1.04452437e-002, 5.28562069e-001
1.16258001e+000, 2.46386006e-001, -4.46287245e-002, 1.07912493e+000, 1.05462065e-002, 5.28727293e-001
1.16258001e+000, 2.46386006e-001, -4.44287248e-002, 1.08333874e+000, 1.06471730e-002, 5.28892517e-001
1.16258001e+000, 2.46386006e-001, -4.42287251e-002, 1.08755255e+000, 1.07481387e-002, 5.29057741e-001
1.16258001e+000, 2.46386006e-001, -4.40287255e-002, 1.09176636e+000, 1.08491033e-002, 5.29223025e-001
1.16258001e+000, 2.46386006e-001, -4.38287258e-002, 1.09583676e+000, 1.09419245e-002, 5.29541910e-001
1.16258001e+000, 2.46386006e-001, -4.36287262e-002, 1.09861898e+000, 1.07122557e-002, 5.29833615e-001
1.16258001e+000, 2.46386006e-001, -4.34287265e-002, 1.09973705e+000, 9.75066237e-003, 5.28309941e-001
1.16258001e+000, 2.46386006e-001, -4.32287268e-002, 1.10085511e+000, 8.78906809e-003, 5.26786208e-001
1.16258001e+000, 2.46386006e-001, -4.30287272e-002, 1.10178041e+000, 7.73745682e-003, 5.25176764e-001
1.16258001e+000, 2.46386006e-001, -4.28287275e-002, 1.10255635e+000, 6.61601871e-003, 5.23500681e-001
1.16258001e+000, 2.46386006e-001, -4.26287279e-002, 1.10333228e+000, 5.49458060e-003, 5.21824539e-001
1.16258001e+000, 2.46386006e-001, -4.24287282e-002, 1.10416889e+000, 4.49892925e-003, 5.20213187e-001
1.16258001e+000, 2.46386006e-001, -4.22287285e-002, 1.10511148e+000, 3.72195547e-003, 5.18714249e-001
1.16258001e+000, 2.46386006e-001, -4.20287289e-002, 1.10605407e+000, 2.94498145e-003, 5.17215371e-001
1.16258001e+000, 2.46386006e-001, -4.18287292e-002, 1.10700583e+000, 2.20977305e-003, 5.15727580e-001
1.16258001e+000, 2.46386006e-001, -4.16287296e-002, 1.10798752e+000, 1.55857264e-003, 5.14200211e-001
1.16258001e+000, 2.46386006e-001, -4.14287299e-002, 1.10898900e+000, 9.19123704e-004, 5.12577116e-001
1.16258001e+000, 2.46386006e-001, -4.12287302e-002, 1.10999060e+000, 2.79674656e-004, 5.10953963e-001
1.16258001e+000, 2.46386006e-001, -4.10287306e-002, 1.11099207e+000, -3.59774160e-004, 5.09330869e-001
1.16258001e+000, 2.46386006e-001, -4.08287309e-002, 1.11199379e+000, -9.99223208e-004, 5.07707775e-001
1.16258001e+000, 2.46386006e-001, -4.06287313e-002, 1.11299551e+000, -1.63867231e-003, 5.06084681e-001
1.16258001e+000, 2.46386006e-001, -4.04287316e-002, 1.11399710e+000, -2.27812142e-003, 5.04461586e-001
1.16258001e+000, 2.46386006e-001, -4.02287319e-002, 1.11499882e+000, -2.91757006e-003, 5.02838492e-001
1.16258001e+000, 2.46386006e-001, -4.00287323e-002, 1.11600029e+000, -3.55701917e-003, 5.01215398e-001
1.16258001e+000, 2.46386006e-001, -3.98287326e-002, 1.11697257e+000, -4.23888536e-003, 4.99554902e-001
1.16258001e+000, 2.46386006e-001, -3.96287329e-002, 1.11782157e+000, -5.09966165e-003, 4.97736543e-001
1.16258001e+000, 2.46386006e-001, -3.94287333e-002, 1.11867058e+000, -5.96043793e-003, 4.95918185e-001
1.16258001e+000, 2.46386006e-001, -3.92287336e-002, 1.11951935e+000, -6.82121422e-003, 4.94099796e-001
1.16258001e+000, 2.46386006e-001, -3.90287340e-002, 1.12047648e+000, -7.59437820e-003, 4.92343605e-001
1.16258001e+000, 2.46386006e-001, -3.88287343e-002, 1.12169313e+000, -8.19517486e-003, 4.90662694e-001
1.16258001e+000, 2.46386006e-001, -3.86287346e-002, 1.12324357e+000, -8.66702665e-003, 4.88899618e-001
1.16258001e+000, 2.46386006e-001, -3.84287350e-002, 1.12422407e+000, -9.21884365e-003, 4.86954451e-001
1.16258001e+000, 2.46386006e-001, -3.82287353e-002, 1.12483990e+000, -9.80136264e-003, 4.84936953e-001
1.16258001e+000, 2.46386006e-001, -3.80287357e-002, 1.12554097e+000, -1.04248086e-002, 4.83117312e-001
1.16258001e+000, 2.46386006e-001, -3.78287360e-002, 1.12629330e+000, -1.10491635e-002, 4.81405973e-001
1.16258001e+000, 2.46386006e-001, -3.76287363e-002, 1.12704551e+000, -1.16735175e-002, 4.79694545e-001
1.16258001e+000, 2.46386006e-001, -3.74287367e-002, 1.12779784e+000, -1.22978743e-002, 4.77983177e-001
1.16258001e+000, 2.46386006e-001, -3.72287370e-002, 1.12854993e+000, -1.29222274e-002, 4.76271778e-001
1.16258001e+000, 2.46386006e-001, -3.70287374e-002, 1.12930226e+000, -1.35465842e-002, 4.74560380e-001
1.16258001e+000, 2.46386006e-001, -3.68287377e-002, 1.13005459e+000, -1.41709391e-002, 4.72849041e-001
1.16258001e+000, 2.46386006e-001, -3.66287380e-002, 1.13080668e+000, -1.47952940e-002, 4.71137613e-001
1.16258001e+000, 2.46386006e-001, -3.64287384e-002, 1.13155913e+000, -1.54196490e-002, 4.69426274e-001
1.16258001e+000, 2.46386006e-001, -3.62287387e-002, 1.13214469e+000, -1.59248710e-002, 4.67714071e-001
1.16258001e+000, 2.46386006e-001, -3.60287391e-002, 1.13263750e+000, -1.63637344e-002, 4.66001451e-001
1.16258001e+000, 2.46386006e-001, -3.58287394e-002, 1.13313031e+000, -1.68025959e-002, 4.64288831e-001
1.16258001e+000, 2.46386006e-001, -3.56287397e-002, 1.13362324e+000, -1.72414575e-002, 4.62576270e-001
1.16258001e+000, 2.46386006e-001, -3.54287401e-002, 1.13411605e+000, -1.76803209e-002, 4.60863680e-001
1.16258001e+000, 2.46386006e-001, -3.52287404e-002, 1.13460898e+000, -1.81191806e-002, 4.59151000e-001
1.16258001e+000, 2.46386006e-001, -3.50287408e-002, 1.13511682e+000, -1.85603555e-002, 4.57448632e-001
1.16258001e+000, 2.46386006e-001, -3.48287411e-002, 1.13575089e+000, -1.90208200e-002, 4.55831885e-001
1.16258001e+000, 2.46386006e-001, -3.46287414e-002, 1.13638699e+000, -1.94819123e-002, 4.54206616e-001
1.16258001e+000, 2.46386006e-001, -3.44287418e-002, 1.13703907e+000, -1.99475717e-002, 4.52519268e-001
1.16258001e+000, 2.46386006e-001, -3.42287421e-002, 1.13769126e+000, -2.04132292e-002, 4.50831950e-001
1.16258001e+000, 2.46386006e-001, -3.40287425e-002, 1.13834345e+000, -2.08788905e-002, 4.49144572e-001
1.16258001e+000, 2.46386006e-001, -3.38287428e-002, 1.13899553e+000, -2.13445500e-002, 4.47457224e-001
1.16258001e+000, 2.46386006e-001, -3.36287431e-002, 1.13964772e+000, -2.18102112e-002, 4.45769876e-001
1.16258001e+000, 2.46386006e-001, -3.34287435e-002, 1.14026976e+000, -2.22500972e-002, 4.44127679e-001
1.16258001e+000, 2.46386006e-001, -3.32287438e-002, 1.14078712e+000, -2.26004049e-002, 4.42642868e-001
1.16258001e+000, 2.46386006e-001, -3.30287442e-002, 1.14130449e+000, -2.29507126e-002, 4.41157937e-001
1.16258001e+000, 2.46386006e-001, -3.28287445e-002, 1.14182186e+000, -2.33010203e-002, 4.39673066e-001
1.16258001e+000, 2.46386006e-001, -3.26287448e-002, 1.14233923e+000, -2.36513279e-002, 4.38188195e-001
1.16258001e+000, 2.46386006e-001, -3.24287452e-002, 1.14285660e+000, -2.40016356e-002, 4.36703324e-001
1.16258001e+000, 2.46386006e-001, -3.22287455e-002, 1.14337397e+000, -2.43519433e-002, 4.35218453e-001
1.16258001e+000, 2.46386006e-001, -3.20287459e-002, 1.14388227e+000, -2.46981904e-002, 4.33713555e-001
1.16258001e+000, 2.46386006e-001, -3.18287462e-002, 1.14433408e+000, -2.50191763e-002, 4.32084560e-001
1.16258001e+000, 2.46386006e-001, -3.16287465e-002, 1.14478576e+000, -2.53401641e-002, 4.30455565e-001
1.16258001e+000, 2.46386006e-001, -3.14287469e-002, 1.14523768e+000, -2.56611537e-002, 4.28826571e-001
1.16258001e+000, 2.46386006e-001, -3.12287472e-002, 1.14568949e+000, -2.59821452e-002, 4.27197605e-001
1.16258001e+000, 2.46386006e-001, -3.10287476e-002, 1.14614129e+000, -2.63031311e-002, 4.25568640e-001
1.16258001e+000, 2.46386006e-001, -3.08287479e-002, 1.14659309e+000, -2.66241208e-002, 4.23939615e-001
1.16258001e+000, 2.46386006e-001, -3.06287482e-002, 1.14704490e+000, -2.69451104e-002, 4.22310650e-001
1.16258001e+000, 2.46386006e-001, -3.04287486e-002, 1.14747190e+000, -2.72533633e-002, 4.20673817e-001
1.16258001e+000, 2.46386006e-001, -3.02287489e-002, 1.14790249e+000, -2.75631584e-002, 4.19016123e-001
1.16258001e+000, 2.46386006e-001, -3.00287493e-002, 1.14831018e+000, -2.78612003e-002, 4.17352051e-001
1.16258001e+000, 2.46386006e-001, -2.98287496e-002, 1.14865315e+000, -2.81174891e-002, 4.15792763e-001
1.16258001e+000, 2.46386006e-001, -2.96287499e-002, 1.14897525e+000, -2.83602513e-002, 4.14267391e-001
1.16258001e+000, 2.46386006e-001, -2.94287503e-002, 1.14929736e+000, -2.86030136e-002, 4.12742019e-001
1.16258001e+000, 2.46386006e-001, -2.92287506e-002, 1.14961934e+000, -2.88457759e-002, 4.11216676e-001
1.16258001e+000, 2.46386006e-001, -2.90287510e-002, 1.15001237e+000, -2.91131753e-002, 4.09804970e-001
1.16258001e+000, 2.46386006e-001, -2.88287513e-002, 1.15042472e+000, -2.93873549e-002, 4.08424497e-001
1.16258001e+000, 2.46386006e-001, -2.86287516e-002, 1.15083718e+000, -2.96615362e-002, 4.07044113e-001
1.16258001e+000, 2.46386006e-001, -2.84287520e-002, 1.15124953e+000, -2.99357176e-002, 4.05663669e-001
1.16258001e+000, 2.46386006e-001, -2.82287523e-002, 1.15152681e+000, -3.01338360e-002, 4.04215008e-001
1.16258001e+000, 2.46386006e-001, -2.80287527e-002, 1.15176868e+000, -3.03119533e-002, 4.02748466e-001
1.16258001e+000, 2.46386006e-001, -2.78287530e-002, 1.15201056e+000, -3.04900687e-002, 4.01281893e-001
1.16258001e+000, 2.46386006e-001, -2.76287533e-002, 1.15225244e+000, -3.06681842e-002, 3.99815321e-001
1.16258001e+000, 2.46386006e-001, -2.74287537e-002, 1.15249419e+000, -3.08463015e-002, 3.98348749e-001
1.16258001e+000, 2.46386006e-001, -2.72287540e-002, 1.15273595e+000, -3.10244150e-002, 3.96882176e-001
1.16258001e+000, 2.46386006e-001, -2.70287544e-002, 1.15297794e+000, -3.12025324e-002, 3.95415604e-001
1.16258001e+000, 2.46386006e-001, -2.68287547e-002, 1.15323281e+000, -3.14059556e-002, 3.93842638e-001
1.16258001e+000, 2.46386006e-001, -2.66287550e-002, 1.15349674e+000, -3.16265635e-002, 3.92197341e-001
1.16258001e+000, 2.46386006e-001, -2.64287554e-002, 1.15376067e+000, -3.18471715e-002, 3.90552104e-001
1.16258001e+000, 2.46386006e-001, -2.62287557e-002, 1.15402460e+000, -3.20677832e-002, 3.88906896e-001
1.16258001e+000, 2.46386006e-001, -2.60287561e-002, 1.15428853e+000, -3.22883911e-002, 3.87261629e-001
1.16258001e+000, 2.46386006e-001, -2.58287564e-002, 1.15455234e+000, -3.25089991e-002, 3.85616362e-001
1.16258001e+000, 2.46386006e-001, -2.56287567e-002, 1.15479124e+000, -3.27093117e-002, 3.84014904e-001
1.16258001e+000, 2.46386006e-001, -2.54287571e-002, 1.15490568e+000, -3.28087583e-002, 3.82631034e-001
1.16258001e+000, 2.46386006e-001, -2.52287574e-002, 1.15501976e+000, -3.29082012e-002, 3.81247133e-001
1.16258001e+000, 2.46386006e-001, -2.50287578e-002, 1.15513408e+000, -3.30076441e-002, 3.79863232e-001
1.16258001e+000, 2.46386006e-001, -2.48287581e-002, 1.15524840e+000, -3.31070870e-002, 3.78479332e-001
1.16258001e+000, 2.46386006e-001, -2.46287584e-002, 1.15536284e+000, -3.32065336e-002, 3.77095431e-001
1.16258001e+000, 2.46386006e-001, -2.44287588e-002, 1.15555513e+000, -3.33536565e-002, 3.75744700e-001
1.16258001e+000, 2.46386006e-001, -2.42287591e-002, 1.15575707e+000, -3.35066989e-002, 3.74397993e-001
1.16258001e+000, 2.46386006e-001, -2.40287594e-002, 1.15589058e+000, -3.36221717e-002, 3.72984797e-001
1.16258001e+000, 2.46386006e-001, -2.38287598e-002, 1.15600765e+000, -3.37285921e-002, 3.71555567e-001
1.16258001e+000, 2.46386006e-001, -2.36287601e-002, 1.15612459e+000, -3.38350125e-002, 3.70126307e-001
1.16258001e+000, 2.46386006e-001, -2.34287605e-002, 1.15624166e+000, -3.39414328e-002, 3.68697077e-001
1.16258001e+000, 2.46386006e-001, -2.32287608e-002, 1.15635884e+000, -3.40478569e-002, 3.67267847e-001
1.16258001e+000, 2.46386006e-001, -2.30287611e-002, 1.15647578e+000, -3.41542736e-002, 3.65838587e-001
1.16258001e+000, 2.46386006e-001, -2.28287615e-002, 1.15660691e+000, -3.42705362e-002, 3.64452481e-001
1.16258001e+000, 2.46386006e-001, -2.26287618e-002, 1.15674639e+000, -3.43927592e-002, 3.63092482e-001
1.16258001e+000, 2.46386006e-001, -2.24287622e-002, 1.15685165e+000, -3.44958194e-002, 3.61773372e-001
1.16258001e+000, 2.46386006e-001, -2.22287625e-002, 1.15692151e+000, -3.45790498e-002, 3.60496700e-001
1.16258001e+000, 2.46386006e-001, -2.20287628e-002, 1.15699148e+000, -3.46622765e-002, 3.59220028e-001
1.16258001e+000, 2.46386006e-001, -2.18287632e-002, 1.15706134e+000, -3.47455032e-002, 3.57943356e-001
1.16258001e+000, 2.46386006e-001, -2.16287635e-002, 1.15713120e+000, -3.48287337e-002, 3.56666684e-001
1.16258001e+000, 2.46386006e-001, -2.14287639e-002, 1.15720105e+000, -3.49119566e-002, 3.55389953e-001
1.16258001e+000, 2.46386006e-001, -2.12287642e-002, 1.15727091e+000, -3.49951908e-002, 3.54113311e-001
1.16258001e+000, 2.46386006e-001, -2.10287645e-002, 1.15733027e+000, -3.50716040e-002, 3.52834553e-001
1.16258001e+000, 2.46386006e-001, -2.08287649e-002, 1.15736675e+000, -3.51358354e-002, 3.51574898e-001
1.16258001e+000, 2.46386006e-001, -2.06287652e-002, 1.15744269e+000, -3.52266021e-002, 3.50335300e-001
1.16258001e+000, 2.46386006e-001, -2.04287656e-002, 1.15751874e+000, -3.53173688e-002, 3.49095672e-001
1.16258001e+000, 2.46386006e-001, -2.02287659e-002, 1.15759468e+000, -3.54081318e-002, 3.47856045e-001
1.16258001e+000, 2.46386006e-001, -2.00287662e-002, 1.15767062e+000, -3.54988985e-002, 3.46616417e-001
1.16258001e+000, 2.46386006e-001, -1.98287666e-002, 1.15774655e+000, -3.55896652e-002, 3.45376790e-001
1.16258001e+000, 2.46386006e-001, -1.96287669e-002, 1.15782261e+000, -3.56804319e-002, 3.44137162e-001
1.16258001e+000, 2.46386006e-001, -1.94287673e-002, 1.15789843e+000, -3.57711986e-002, 3.42897505e-001
1.16258001e+000, 2.46386006e-001, -1.92287676e-002, 1.15797448e+000, -3.58619690e-002, 3.41657907e-001
1.16258001e+000, 2.46386006e-001, -1.90287679e-002, 1.15805054e+000, -3.59527320e-002, 3.40418279e-001
1.16258001e+000, 2.46386006e-001, -1.88287683e-002, 1.15812647e+000, -3.60434987e-002, 3.39178681e-001
1.16258001e+000, 2.46386006e-001, -1.86287686e-002, 1.15821052e+000, -3.61397080e-002, 3.37937266e-001
1.16258001e+000, 2.46386006e-001, -1.84287690e-002, 1.15829873e+000, -3.62385847e-002, 3.36695135e-001
1.16258001e+000, 2.46386006e-001, -1.82287693e-002, 1.15833807e+000, -3.63063440e-002, 3.35501730e-001
1.16258001e+000, 2.46386006e-001, -1.80287696e-002, 1.15829170e+000, -3.63193452e-002, 3.34394217e-001
1.16258001e+000, 2.46386006e-001, -1.78287700e-002, 1.15824544e+000, -3.63323502e-002, 3.33286703e-001
1.16258001e+000, 2.46386006e-001, -1.76287703e-002, 1.15819895e+000, -3.63453552e-002, 3.32179159e-001
1.16258001e+000, 2.46386006e-001, -1.74287707e-002, 1.15815270e+000, -3.63583565e-002, 3.31071615e-001
1.16258001e+000, 2.46386006e-001, -1.72287710e-002, 1.15810633e+000, -3.63713577e-002, 3.29964101e-001
1.16258001e+000, 2.46386006e-001, -1.70287713e-002, 1.15805995e+000, -3.63843627e-002, 3.28856587e-001
1.16258001e+000, 2.46386006e-001, -1.68287717e-002, 1.15801358e+000, -3.63973640e-002, 3.27749014e-001
1.16258001e+000, 2.46386006e-001, -1.66287720e-002, 1.15796709e+000, -3.64103653e-002, 3.26641470e-001
1.16258001e+000, 2.46386006e-001, -1.64287724e-002, 1.15791523e+000, -3.64181399e-002, 3.25501680e-001
1.16258001e+000, 2.46386006e-001, -1.62287727e-002, 1.15786576e+000, -3.64267342e-002, 3.24353576e-001
1.16258001e+000, 2.46386006e-001, -1.60287730e-002, 1.15790975e+000, -3.64904888e-002, 3.23204786e-001
1.16258001e+000, 2.46386006e-001, -1.58287734e-002, 1.15795386e+000, -3.65542397e-002, 3.22055995e-001
1.16258001e+000, 2.46386006e-001, -1.56287737e-002, 1.15792513e+000, -3.65560576e-002, 3.21097016e-001
1.16258001e+000, 2.46386006e-001, -1.54287741e-002, 1.15790880e+000, -3.65851969e-002, 3.20082605e-001
1.16258001e+000, 2.46386006e-001, -1.52287744e-002, 1.15785754e+000, -3.65971811e-002, 3.19023073e-001
1.16258001e+000, 2.46386006e-001, -1.50287747e-002, 1.15780616e+000, -3.66091579e-002, 3.17963481e-001
1.16258001e+000, 2.46386006e-001, -1.48287751e-002, 1.15775478e+000, -3.66211385e-002, 3.16903949e-001
1.16258001e+000, 2.46386006e-001, -1.46287754e-002, 1.15770340e+000, -3.66331190e-002, 3.15844417e-001
1.16258001e+000, 2.46386006e-001, -1.44287758e-002, 1.15765214e+000, -3.66450995e-002, 3.14784884e-001
1.16258001e+000, 2.46386006e-001, -1.42287761e-002, 1.15760076e+000, -3.66570801e-002, 3.13725293e-001
1.16258001e+000, 2.46386006e-001, -1.40287764e-002, 1.15754437e+000, -3.66660729e-002, 3.12681079e-001
1.16258001e+000, 2.46386006e-001, -1.38287768e-002, 1.15746689e+000, -3.66628468e-002, 3.11699241e-001
1.16258001e+000, 2.46386006e-001, -1.36287771e-002, 1.15738928e+000, -3.66596282e-002, 3.10717463e-001
1.16258001e+000, 2.46386006e-001, -1.34287775e-002, 1.15731168e+000, -3.66564058e-002, 3.09735596e-001
1.16258001e+000, 2.46386006e-001, -1.32287778e-002, 1.15723419e+000, -3.66531834e-002, 3.08753788e-001
1.16258001e+000, 2.46386006e-001, -1.30287781e-002, 1.15715671e+000, -3.66499647e-002, 3.07771981e-001
1.16258001e+000, 2.46386006e-001, -1.28287785e-002, 1.15707922e+000, -3.66467424e-002, 3.06790173e-001
1.16258001e+000, 2.46386006e-001, -1.26287788e-002, 1.15700173e+000, -3.66435200e-002, 3.05808365e-001
1.16258001e+000, 2.46386006e-001, -1.24287792e-002, 1.15692413e+000, -3.66402976e-002, 3.04826558e-001
1.16258001e+000, 2.46386006e-001, -1.22287795e-002, 1.15684652e+000, -3.66370752e-002, 3.03844750e-001
1.16258001e+000, 2.46386006e-001, -1.20287798e-002, 1.15676904e+000, -3.66338566e-002, 3.02862912e-001
1.16258001e+000, 2.46386006e-001, -1.18287802e-002, 1.15669835e+000, -3.66355442e-002, 3.01857054e-001
1.16258001e+000, 2.46386006e-001, -1.16287805e-002, 1.15663958e+000, -3.66459489e-002, 3.00808400e-001
1.16258001e+000, 2.46386006e-001, -1.14287809e-002, 1.15658057e+000, -3.66563536e-002, 2.99759775e-001
1.16258001e+000, 2.46386006e-001, -1.12287812e-002, 1.15652192e+000, -3.66667584e-002, 2.98711121e-001
1.16258001e+000, 2.46386006e-001, -1.10287815e-002, 1.15646327e+000, -3.66771668e-002, 2.97662497e-001
1.16258001e+000, 2.46386006e-001, -1.08287819e-002, 1.15640450e+000, -3.66875716e-002, 2.96613872e-001
1.16258001e+000, 2.46386006e-001, -1.06287822e-002, 1.15634573e+000, -3.66979800e-002, 2.95565248e-001
1.16258001e+000, 2.46386006e-001, -1.04287826e-002, 1.15628695e+000, -3.67083810e-002, 2.94516593e-001
1.16258001e+000, 2.46386006e-001, -1.02287829e-002, 1.15612936e+000, -3.66399474e-002, 2.93716133e-001
1.16258001e+000, 2.46386006e-001, -1.00287832e-002, 1.15607667e+000, -3.66517231e-002, 2.92723626e-001
1.16258001e+000, 2.46386006e-001, -9.82878357e-003, 1.15604389e+000, -3.66752595e-002, 2.91778177e-001
1.16258001e+000, 2.46386006e-001, -9.62878391e-003, 1.15602398e+000, -3.67061794e-002, 2.90862322e-001
1.16258001e+000, 2.46386006e-001, -9.42878425e-003, 1.15600407e+000, -3.67370918e-002, 2.89946407e-001
1.16258001e+000, 2.46386006e-001, -9.22878459e-003, 1.15592837e+000, -3.67309675e-002, 2.89062321e-001
1.16258001e+000, 2.46386006e-001, -9.02878493e-003, 1.15583384e+000, -3.67122926e-002, 2.88188934e-001
1.16258001e+000, 2.46386006e-001, -8.82878527e-003, 1.15574229e+000, -3.66954841e-002, 2.87314475e-001
1.16258001e+000, 2.46386006e-001, -8.62878561e-003, 1.15565526e+000, -3.66817005e-002, 2.86438137e-001
1.16258001e+000, 2.46386006e-001, -8.42878595e-003, 1.15556705e+000, -3.66672389e-002, 2.85558671e-001
1.16258001e+000, 2.46386006e-001, -8.22878629e-003, 1.15547657e+000, -3.66512723e-002, 2.84672260e-001
1.16258001e+000, 2.46386006e-001, -8.02878663e-003, 1.15538597e+000, -3.66353169e-002, 2.83785939e-001
1.16258001e+000, 2.46386006e-001, -7.82878697e-003, 1.15529537e+000, -3.66193615e-002, 2.82899588e-001
1.16258001e+000, 2.46386006e-001, -7.62878684e-003, 1.15520477e+000, -3.66033986e-002, 2.82013148e-001
1.16258001e+000, 2.46386006e-001, -7.42878672e-003, 1.15511417e+000, -3.65874395e-002, 2.81126797e-001
1.16258001e+000, 2.46386006e-001, -7.22878659e-003, 1.15502357e+000, -3.65714841e-002, 2.80240446e-001
1.16258001e+000, 2.46386006e-001, -7.02878647e-003, 1.15493298e+000, -3.65555249e-002, 2.79354066e-001
1.16258001e+000, 2.46386006e-001, -6.82878634e-003, 1.15484238e+000, -3.65395658e-002, 2.78467685e-001
1.16258001e+000, 2.46386006e-001, -6.62878621e-003, 1.15475178e+000, -3.65236029e-002, 2.77581304e-001
1.16258001e+000, 2.46386006e-001, -6.42878609e-003, 1.15466118e+000, -3.65076475e-002, 2.76694924e-001
1.16258001e+000, 2.46386006e-001, -6.22878596e-003, 1.15457058e+000, -3.64916883e-002, 2.75808543e-001
1.16258001e+000, 2.46386006e-001, -6.02878584e-003, 1.15447998e+000, -3.64757255e-002, 2.74922192e-001
1.16258001e+000, 2.46386006e-001, -5.82878571e-003, 1.15438938e+000, -3.64597701e-002, 2.74035811e-001
1.16258001e+000, 2.46386006e-001, -5.62878558e-003, 1.15430021e+000, -3.64431255e-002, 2.73260504e-001
1.16258001e+000, 2.46386006e-001, -5.42878546e-003, 1.15421104e+000, -3.64265032e-002, 2.72481412e-001
1.16258001e+000, 2.46386006e-001, -5.22878533e-003, 1.15412188e+000, -3.64098810e-002, 2.71702290e-001
1.16258001e+000, 2.46386006e-001, -5.02878521e-003, 1.15402079e+000, -3.63867953e-002, 2.70910710e-001
1.16258001e+000, 2.46386006e-001, -4.82878508e-003, 1.15390790e+000, -3.63573544e-002, 2.70106852e-001
1.16258001e+000, 2.46386006e-001, -4.62878495e-003, 1.15379500e+000, -3.63279134e-002, 2.69302964e-001
1.16258001e+000, 2.46386006e-001, -4.42878483e-003, 1.15368199e+000, -3.62984724e-002, 2.68499136e-001
1.16258001e+000, 2.46386006e-001, -4.22878470e-003, 1.15356898e+000, -3.62690315e-002, 2.67695248e-001
1.16258001e+000, 2.46386006e-001, -4.02878458e-003, 1.15345621e+000, -3.62395942e-002, 2.66891420e-001
1.16258001e+000, 2.46386006e-001, -3.82878445e-003, 1.15334320e+000, -3.62101495e-002, 2.66087502e-001
1.16258001e+000, 2.46386006e-001, -3.62878432e-003, 1.15323043e+000, -3.61807123e-002, 2.65283674e-001
1.16258001e+000, 2.46386006e-001, -3.42878420e-003, 1.15311742e+000, -3.61512676e-002, 2.64479816e-001
1.16258001e+000, 2.46386006e-001, -3.22878407e-003, 1.15300441e+000, -3.61218266e-002, 2.63675928e-001