TITLE = "015.1"

VARIABLES = "X" "Y" "Z" "u/Uinf" "v/Uinf" "w/Uinf"

##
## CFD-Post Generic Export
##
## CFX-14.5 build 2012.09.19-21.47
##
## Generated on:  2013/05/16 15:31:09
##
## Generated from case(s): Case HiLiPW2_Case1Config2_Grid_Bm_lowRe_00.0deg_001
##

ZONE T="015.1 Case2a a0.0 medium, p1, wB, line1"

1.16258001e+000, 2.46386006e-001, -6.00286983e-002, 3.93281281e-002, 2.58038729e-001, -2.50327975e-001
1.16258001e+000, 2.46386006e-001, -5.98286986e-002, 5.05713634e-002, 2.54767656e-001, -2.35963628e-001
1.16258001e+000, 2.46386006e-001, -5.96286990e-002, 6.14471436e-002, 2.49894753e-001, -2.20964462e-001
1.16258001e+000, 2.46386006e-001, -5.94286993e-002, 7.33584613e-002, 2.43824318e-001, -2.04782024e-001
1.16258001e+000, 2.46386006e-001, -5.92286997e-002, 8.54649618e-002, 2.36479595e-001, -1.87152117e-001
1.16258001e+000, 2.46386006e-001, -5.90287000e-002, 9.78702754e-002, 2.28740215e-001, -1.69520602e-001
1.16258001e+000, 2.46386006e-001, -5.88287003e-002, 1.11022159e-001, 2.20583439e-001, -1.51649654e-001
1.16258001e+000, 2.46386006e-001, -5.86287007e-002, 1.25586256e-001, 2.10451812e-001, -1.30932838e-001
1.16258001e+000, 2.46386006e-001, -5.84287010e-002, 1.40239552e-001, 2.00390264e-001, -1.10832363e-001
1.16258001e+000, 2.46386006e-001, -5.82287014e-002, 1.54999450e-001, 1.90384939e-001, -9.13494304e-002
1.16258001e+000, 2.46386006e-001, -5.80287017e-002, 1.70376062e-001, 1.80115297e-001, -7.14531243e-002
1.16258001e+000, 2.46386006e-001, -5.78287020e-002, 1.86117485e-001, 1.69738472e-001, -5.11523336e-002
1.16258001e+000, 2.46386006e-001, -5.76287024e-002, 2.01482683e-001, 1.59696281e-001, -3.16493623e-002
1.16258001e+000, 2.46386006e-001, -5.74287027e-002, 2.16448098e-001, 1.49992570e-001, -1.29952114e-002
1.16258001e+000, 2.46386006e-001, -5.72287031e-002, 2.30849534e-001, 1.40692368e-001, 4.65235207e-003
1.16258001e+000, 2.46386006e-001, -5.70287034e-002, 2.44711682e-001, 1.31805599e-001, 2.14301199e-002
1.16258001e+000, 2.46386006e-001, -5.68287037e-002, 2.56640881e-001, 1.24638960e-001, 3.62604372e-002
1.16258001e+000, 2.46386006e-001, -5.66287041e-002, 2.66304731e-001, 1.19051293e-001, 4.82709147e-002
1.16258001e+000, 2.46386006e-001, -5.64287044e-002, 2.76121199e-001, 1.13267995e-001, 6.06796406e-002
1.16258001e+000, 2.46386006e-001, -5.62287048e-002, 2.86036253e-001, 1.07407853e-001, 7.32335970e-002
1.16258001e+000, 2.46386006e-001, -5.60287051e-002, 2.95263559e-001, 1.01922363e-001, 8.46920460e-002
1.16258001e+000, 2.46386006e-001, -5.58287054e-002, 3.03556204e-001, 9.69622433e-002, 9.46791023e-002
1.16258001e+000, 2.46386006e-001, -5.56287058e-002, 3.11754942e-001, 9.20821577e-002, 1.04697213e-001
1.16258001e+000, 2.46386006e-001, -5.54287061e-002, 3.20019782e-001, 8.71262550e-002, 1.14960432e-001
1.16258001e+000, 2.46386006e-001, -5.52287064e-002, 3.25788468e-001, 8.37401375e-002, 1.23332947e-001
1.16258001e+000, 2.46386006e-001, -5.50287068e-002, 3.30991954e-001, 8.07561502e-002, 1.31379873e-001
1.16258001e+000, 2.46386006e-001, -5.48287071e-002, 3.36195469e-001, 7.77721703e-002, 1.39426813e-001
1.16258001e+000, 2.46386006e-001, -5.46287075e-002, 3.41399014e-001, 7.47881904e-002, 1.47473723e-001
1.16258001e+000, 2.46386006e-001, -5.44287078e-002, 3.46585989e-001, 7.18485713e-002, 1.55795991e-001
1.16258001e+000, 2.46386006e-001, -5.42287081e-002, 3.53715301e-001, 6.75413460e-002, 1.64946124e-001
1.16258001e+000, 2.46386006e-001, -5.40287085e-002, 3.60844612e-001, 6.32341132e-002, 1.74096271e-001
1.16258001e+000, 2.46386006e-001, -5.38287088e-002, 3.68297219e-001, 5.86983375e-002, 1.82765663e-001
1.16258001e+000, 2.46386006e-001, -5.36287092e-002, 3.76790702e-001, 5.34268022e-002, 1.89887539e-001
1.16258001e+000, 2.46386006e-001, -5.34287095e-002, 3.85071158e-001, 4.79072891e-002, 1.98048890e-001
1.16258001e+000, 2.46386006e-001, -5.32287098e-002, 3.93331319e-001, 4.23641056e-002, 2.06309468e-001
1.16258001e+000, 2.46386006e-001, -5.30287102e-002, 4.03642148e-001, 3.74221578e-002, 2.14434698e-001
1.16258001e+000, 2.46386006e-001, -5.28287105e-002, 4.19152498e-001, 3.40045951e-002, 2.22216696e-001
1.16258001e+000, 2.46386006e-001, -5.26287109e-002, 4.34662789e-001, 3.05870324e-002, 2.29998708e-001
1.16258001e+000, 2.46386006e-001, -5.24287112e-002, 4.49312150e-001, 2.68539786e-002, 2.37531155e-001
1.16258001e+000, 2.46386006e-001, -5.22287115e-002, 4.63239193e-001, 2.28562746e-002, 2.44854242e-001
1.16258001e+000, 2.46386006e-001, -5.20287119e-002, 4.75397646e-001, 1.84262488e-002, 2.52341121e-001
1.16258001e+000, 2.46386006e-001, -5.18287122e-002, 4.85295057e-001, 1.34435389e-002, 2.60037363e-001
1.16258001e+000, 2.46386006e-001, -5.16287126e-002, 4.96523559e-001, 8.15949775e-003, 2.67891854e-001
1.16258001e+000, 2.46386006e-001, -5.14287129e-002, 5.10836244e-001, 2.17729248e-003, 2.76113063e-001
1.16258001e+000, 2.46386006e-001, -5.12287132e-002, 5.38633108e-001, 5.02904877e-004, 2.86801219e-001
1.16258001e+000, 2.46386006e-001, -5.10287136e-002, 5.72619379e-001, 8.05873889e-004, 2.98621744e-001
1.16258001e+000, 2.46386006e-001, -5.08287139e-002, 6.06605649e-001, 1.10884476e-003, 3.10442239e-001
1.16258001e+000, 2.46386006e-001, -5.06287143e-002, 6.40591979e-001, 1.41181471e-003, 3.22262764e-001
1.16258001e+000, 2.46386006e-001, -5.04287146e-002, 6.67539597e-001, -6.34543831e-004, 3.32729369e-001
1.16258001e+000, 2.46386006e-001, -5.02287149e-002, 6.90348148e-001, -3.20460182e-003, 3.42492014e-001
1.16258001e+000, 2.46386006e-001, -5.00287153e-002, 7.15564132e-001, -3.85237951e-003, 3.52837861e-001
1.16258001e+000, 2.46386006e-001, -4.98287156e-002, 7.40779996e-001, -4.50015906e-003, 3.63183707e-001
1.16258001e+000, 2.46386006e-001, -4.96287160e-002, 7.65995979e-001, -5.14793536e-003, 3.73529553e-001
1.16258001e+000, 2.46386006e-001, -4.94287163e-002, 7.91211963e-001, -5.79571491e-003, 3.83875400e-001
1.16258001e+000, 2.46386006e-001, -4.92287166e-002, 8.16427827e-001, -6.44349260e-003, 3.94221246e-001
1.16258001e+000, 2.46386006e-001, -4.90287170e-002, 8.42072308e-001, -6.15714258e-003, 4.05027837e-001
1.16258001e+000, 2.46386006e-001, -4.88287173e-002, 8.60772848e-001, -4.25948435e-003, 4.14323211e-001
1.16258001e+000, 2.46386006e-001, -4.86287177e-002, 8.79055321e-001, -2.38777790e-003, 4.23421562e-001
1.16258001e+000, 2.46386006e-001, -4.84287180e-002, 8.97337675e-001, -5.16070984e-004, 4.32519883e-001
1.16258001e+000, 2.46386006e-001, -4.82287183e-002, 9.15620089e-001, 1.35563570e-003, 4.41618174e-001
1.16258001e+000, 2.46386006e-001, -4.80287187e-002, 9.33902502e-001, 3.22734192e-003, 4.50716525e-001
1.16258001e+000, 2.46386006e-001, -4.78287190e-002, 9.51180935e-001, 4.97724721e-003, 4.59294468e-001
1.16258001e+000, 2.46386006e-001, -4.76287194e-002, 9.55964208e-001, 5.21121733e-003, 4.61395800e-001
1.16258001e+000, 2.46386006e-001, -4.74287197e-002, 9.60747302e-001, 5.44518698e-003, 4.63497162e-001
1.16258001e+000, 2.46386006e-001, -4.72287200e-002, 9.65530634e-001, 5.67915663e-003, 4.65598583e-001
1.16258001e+000, 2.46386006e-001, -4.70287204e-002, 9.70313787e-001, 5.91312628e-003, 4.67699945e-001
1.16258001e+000, 2.46386006e-001, -4.68287207e-002, 9.77186501e-001, 6.31883880e-003, 4.70772713e-001
1.16258001e+000, 2.46386006e-001, -4.66287211e-002, 9.86395955e-001, 6.91661099e-003, 4.74931806e-001
1.16258001e+000, 2.46386006e-001, -4.64287214e-002, 9.95605290e-001, 7.51438364e-003, 4.79090929e-001
1.16258001e+000, 2.46386006e-001, -4.62287217e-002, 1.00481474e+000, 8.11215583e-003, 4.83249962e-001
1.16258001e+000, 2.46386006e-001, -4.60287221e-002, 1.01402402e+000, 8.70992895e-003, 4.87409085e-001
1.16258001e+000, 2.46386006e-001, -4.58287224e-002, 1.02323353e+000, 9.30770207e-003, 4.91568178e-001
1.16258001e+000, 2.46386006e-001, -4.56287228e-002, 1.03244293e+000, 9.90547519e-003, 4.95727330e-001
1.16258001e+000, 2.46386006e-001, -4.54287231e-002, 1.04165232e+000, 1.05032474e-002, 4.99886394e-001
1.16258001e+000, 2.46386006e-001, -4.52287234e-002, 1.05086172e+000, 1.11010196e-002, 5.04045486e-001
1.16258001e+000, 2.46386006e-001, -4.50287238e-002, 1.06007099e+000, 1.16987927e-002, 5.08204639e-001
1.16258001e+000, 2.46386006e-001, -4.48287241e-002, 1.06647396e+000, 1.18771894e-002, 5.10311007e-001
1.16258001e+000, 2.46386006e-001, -4.46287245e-002, 1.07065105e+000, 1.16707608e-002, 5.10724008e-001
1.16258001e+000, 2.46386006e-001, -4.44287248e-002, 1.07482815e+000, 1.14643350e-002, 5.11137009e-001
1.16258001e+000, 2.46386006e-001, -4.42287251e-002, 1.07900512e+000, 1.12579074e-002, 5.11550009e-001
1.16258001e+000, 2.46386006e-001, -4.40287255e-002, 1.08318222e+000, 1.10514797e-002, 5.11963010e-001
1.16258001e+000, 2.46386006e-001, -4.38287258e-002, 1.08721268e+000, 1.08761285e-002, 5.12461662e-001
1.16258001e+000, 2.46386006e-001, -4.36287262e-002, 1.08992910e+000, 1.06043667e-002, 5.12686431e-001
1.16258001e+000, 2.46386006e-001, -4.34287265e-002, 1.09095120e+000, 9.73320380e-003, 5.11238754e-001
1.16258001e+000, 2.46386006e-001, -4.32287268e-002, 1.09197354e+000, 8.86204001e-003, 5.09791136e-001
1.16258001e+000, 2.46386006e-001, -4.30287272e-002, 1.09280157e+000, 7.90960528e-003, 5.08237720e-001
1.16258001e+000, 2.46386006e-001, -4.28287275e-002, 1.09347892e+000, 6.89412607e-003, 5.06602287e-001
1.16258001e+000, 2.46386006e-001, -4.26287279e-002, 1.09415638e+000, 5.87864686e-003, 5.04966855e-001
1.16258001e+000, 2.46386006e-001, -4.24287282e-002, 1.09489906e+000, 4.96970955e-003, 5.03390312e-001
1.16258001e+000, 2.46386006e-001, -4.22287285e-002, 1.09575522e+000, 4.24599089e-003, 5.01916289e-001
1.16258001e+000, 2.46386006e-001, -4.20287289e-002, 1.09661150e+000, 3.52227176e-003, 5.00442326e-001
1.16258001e+000, 2.46386006e-001, -4.18287292e-002, 1.09748709e+000, 2.83488422e-003, 4.99001950e-001
1.16258001e+000, 2.46386006e-001, -4.16287296e-002, 1.09840798e+000, 2.21817847e-003, 4.97572869e-001
1.16258001e+000, 2.46386006e-001, -4.14287299e-002, 1.09934449e+000, 1.60787662e-003, 4.96063352e-001
1.16258001e+000, 2.46386006e-001, -4.12287302e-002, 1.10028088e+000, 9.97574767e-004, 4.94553834e-001
1.16258001e+000, 2.46386006e-001, -4.10287306e-002, 1.10121739e+000, 3.87272739e-004, 4.93044317e-001
1.16258001e+000, 2.46386006e-001, -4.08287309e-002, 1.10215378e+000, -2.23029361e-004, 4.91534829e-001
1.16258001e+000, 2.46386006e-001, -4.06287313e-002, 1.10309041e+000, -8.33330967e-004, 4.90025371e-001
1.16258001e+000, 2.46386006e-001, -4.04287316e-002, 1.10402691e+000, -1.44363299e-003, 4.88515824e-001
1.16258001e+000, 2.46386006e-001, -4.02287319e-002, 1.10496342e+000, -2.05393485e-003, 4.87006366e-001
1.16258001e+000, 2.46386006e-001, -4.00287323e-002, 1.10590005e+000, -2.66423682e-003, 4.85496849e-001
1.16258001e+000, 2.46386006e-001, -3.98287326e-002, 1.10680652e+000, -3.30519117e-003, 4.83959854e-001
1.16258001e+000, 2.46386006e-001, -3.96287329e-002, 1.10758746e+000, -4.07543359e-003, 4.82306957e-001
1.16258001e+000, 2.46386006e-001, -3.94287333e-002, 1.10836828e+000, -4.84567601e-003, 4.80654031e-001
1.16258001e+000, 2.46386006e-001, -3.92287336e-002, 1.10914886e+000, -5.61591890e-003, 4.79001045e-001
1.16258001e+000, 2.46386006e-001, -3.90287340e-002, 1.11003768e+000, -6.33121002e-003, 4.77382839e-001
1.16258001e+000, 2.46386006e-001, -3.88287343e-002, 1.11118805e+000, -6.93793502e-003, 4.75812823e-001
1.16258001e+000, 2.46386006e-001, -3.86287346e-002, 1.11267889e+000, -7.46209919e-003, 4.74220157e-001
1.16258001e+000, 2.46386006e-001, -3.84287350e-002, 1.11360896e+000, -8.00714921e-003, 4.72397387e-001
1.16258001e+000, 2.46386006e-001, -3.82287353e-002, 1.11418104e+000, -8.54875986e-003, 4.70472068e-001
1.16258001e+000, 2.46386006e-001, -3.80287357e-002, 1.11482966e+000, -9.12646390e-003, 4.68720317e-001
1.16258001e+000, 2.46386006e-001, -3.78287360e-002, 1.11552358e+000, -9.70444456e-003, 4.67067540e-001
1.16258001e+000, 2.46386006e-001, -3.76287363e-002, 1.11621749e+000, -1.02824252e-002, 4.65414673e-001
1.16258001e+000, 2.46386006e-001, -3.74287367e-002, 1.11691153e+000, -1.08604059e-002, 4.63761866e-001
1.16258001e+000, 2.46386006e-001, -3.72287370e-002, 1.11760533e+000, -1.14383856e-002, 4.62109029e-001
1.16258001e+000, 2.46386006e-001, -3.70287374e-002, 1.11829937e+000, -1.20163672e-002, 4.60456192e-001
1.16258001e+000, 2.46386006e-001, -3.68287377e-002, 1.11899328e+000, -1.25943460e-002, 4.58803415e-001
1.16258001e+000, 2.46386006e-001, -3.66287380e-002, 1.11968708e+000, -1.31723275e-002, 4.57150608e-001
1.16258001e+000, 2.46386006e-001, -3.64287384e-002, 1.12038112e+000, -1.37503073e-002, 4.55497772e-001
1.16258001e+000, 2.46386006e-001, -3.62287387e-002, 1.12092388e+000, -1.42209362e-002, 4.53841150e-001
1.16258001e+000, 2.46386006e-001, -3.60287391e-002, 1.12138247e+000, -1.46317659e-002, 4.52182353e-001
1.16258001e+000, 2.46386006e-001, -3.58287394e-002, 1.12184119e+000, -1.50425946e-002, 4.50523615e-001
1.16258001e+000, 2.46386006e-001, -3.56287397e-002, 1.12229979e+000, -1.54534262e-002, 4.48864847e-001
1.16258001e+000, 2.46386006e-001, -3.54287401e-002, 1.12275851e+000, -1.58642549e-002, 4.47206080e-001
1.16258001e+000, 2.46386006e-001, -3.52287404e-002, 1.12321711e+000, -1.62750836e-002, 4.45547312e-001
1.16258001e+000, 2.46386006e-001, -3.50287408e-002, 1.12368977e+000, -1.66882165e-002, 4.43898648e-001
1.16258001e+000, 2.46386006e-001, -3.48287411e-002, 1.12427878e+000, -1.71205495e-002, 4.42334205e-001
1.16258001e+000, 2.46386006e-001, -3.46287414e-002, 1.12486982e+000, -1.75535399e-002, 4.40762311e-001
1.16258001e+000, 2.46386006e-001, -3.44287418e-002, 1.12547529e+000, -1.79913417e-002, 4.39135939e-001
1.16258001e+000, 2.46386006e-001, -3.42287421e-002, 1.12608087e+000, -1.84291415e-002, 4.37509626e-001
1.16258001e+000, 2.46386006e-001, -3.40287425e-002, 1.12668633e+000, -1.88669413e-002, 4.35883284e-001
1.16258001e+000, 2.46386006e-001, -3.38287428e-002, 1.12729180e+000, -1.93047412e-002, 4.34256971e-001
1.16258001e+000, 2.46386006e-001, -3.36287431e-002, 1.12789726e+000, -1.97425447e-002, 4.32630599e-001
1.16258001e+000, 2.46386006e-001, -3.34287435e-002, 1.12847590e+000, -2.01575886e-002, 4.31045532e-001
1.16258001e+000, 2.46386006e-001, -3.32287438e-002, 1.12896156e+000, -2.04935372e-002, 4.29603964e-001
1.16258001e+000, 2.46386006e-001, -3.30287442e-002, 1.12944710e+000, -2.08294913e-002, 4.28162396e-001
1.16258001e+000, 2.46386006e-001, -3.28287445e-002, 1.12993276e+000, -2.11654417e-002, 4.26720798e-001
1.16258001e+000, 2.46386006e-001, -3.26287448e-002, 1.13041842e+000, -2.15013921e-002, 4.25279230e-001
1.16258001e+000, 2.46386006e-001, -3.24287452e-002, 1.13090396e+000, -2.18373425e-002, 4.23837602e-001
1.16258001e+000, 2.46386006e-001, -3.22287455e-002, 1.13138962e+000, -2.21732948e-002, 4.22396094e-001
1.16258001e+000, 2.46386006e-001, -3.20287459e-002, 1.13186681e+000, -2.25052293e-002, 4.20936286e-001
1.16258001e+000, 2.46386006e-001, -3.18287462e-002, 1.13229167e+000, -2.28121877e-002, 4.19363201e-001
1.16258001e+000, 2.46386006e-001, -3.16287465e-002, 1.13271666e+000, -2.31191479e-002, 4.17790085e-001
1.16258001e+000, 2.46386006e-001, -3.14287469e-002, 1.13314152e+000, -2.34261099e-002, 4.16217029e-001
1.16258001e+000, 2.46386006e-001, -3.12287472e-002, 1.13356638e+000, -2.37330701e-002, 4.14643914e-001
1.16258001e+000, 2.46386006e-001, -3.10287476e-002, 1.13399124e+000, -2.40400285e-002, 4.13070858e-001
1.16258001e+000, 2.46386006e-001, -3.08287479e-002, 1.13441634e+000, -2.43469905e-002, 4.11497772e-001
1.16258001e+000, 2.46386006e-001, -3.06287482e-002, 1.13484120e+000, -2.46539507e-002, 4.09924686e-001
1.16258001e+000, 2.46386006e-001, -3.04287486e-002, 1.13524222e+000, -2.49490663e-002, 4.08344477e-001
1.16258001e+000, 2.46386006e-001, -3.02287489e-002, 1.13564765e+000, -2.52445415e-002, 4.06746536e-001
1.16258001e+000, 2.46386006e-001, -3.00287493e-002, 1.13603091e+000, -2.55291276e-002, 4.05142784e-001
1.16258001e+000, 2.46386006e-001, -2.98287496e-002, 1.13635504e+000, -2.57780813e-002, 4.03635710e-001
1.16258001e+000, 2.46386006e-001, -2.96287499e-002, 1.13666010e+000, -2.60154940e-002, 4.02160019e-001
1.16258001e+000, 2.46386006e-001, -2.94287503e-002, 1.13696516e+000, -2.62529030e-002, 4.00684297e-001
1.16258001e+000, 2.46386006e-001, -2.92287506e-002, 1.13727009e+000, -2.64903121e-002, 3.99208546e-001
1.16258001e+000, 2.46386006e-001, -2.90287510e-002, 1.13764203e+000, -2.67485362e-002, 3.97839516e-001
1.16258001e+000, 2.46386006e-001, -2.88287513e-002, 1.13803220e+000, -2.70124879e-002, 3.96499813e-001
1.16258001e+000, 2.46386006e-001, -2.86287516e-002, 1.13842237e+000, -2.72764452e-002, 3.95160139e-001
1.16258001e+000, 2.46386006e-001, -2.84287520e-002, 1.13881266e+000, -2.75404006e-002, 3.93820405e-001
1.16258001e+000, 2.46386006e-001, -2.82287523e-002, 1.13907897e+000, -2.77349316e-002, 3.92416596e-001
1.16258001e+000, 2.46386006e-001, -2.80287527e-002, 1.13931298e+000, -2.79112067e-002, 3.90996039e-001
1.16258001e+000, 2.46386006e-001, -2.78287530e-002, 1.13954687e+000, -2.80874800e-002, 3.89575422e-001
1.16258001e+000, 2.46386006e-001, -2.76287533e-002, 1.13978088e+000, -2.82637514e-002, 3.88154805e-001
1.16258001e+000, 2.46386006e-001, -2.74287537e-002, 1.14001465e+000, -2.84400284e-002, 3.86734128e-001
1.16258001e+000, 2.46386006e-001, -2.72287540e-002, 1.14024854e+000, -2.86162980e-002, 3.85313511e-001
1.16258001e+000, 2.46386006e-001, -2.70287544e-002, 1.14048254e+000, -2.87925750e-002, 3.83892894e-001
1.16258001e+000, 2.46386006e-001, -2.68287547e-002, 1.14072740e+000, -2.89925262e-002, 3.82373244e-001
1.16258001e+000, 2.46386006e-001, -2.66287550e-002, 1.14097953e+000, -2.92085521e-002, 3.80786330e-001
1.16258001e+000, 2.46386006e-001, -2.64287554e-002, 1.14123178e+000, -2.94245835e-002, 3.79199445e-001
1.16258001e+000, 2.46386006e-001, -2.62287557e-002, 1.14148402e+000, -2.96406113e-002, 3.77612591e-001
1.16258001e+000, 2.46386006e-001, -2.60287561e-002, 1.14173627e+000, -2.98566408e-002, 3.76025677e-001
1.16258001e+000, 2.46386006e-001, -2.58287564e-002, 1.14198840e+000, -3.00726667e-002, 3.74438822e-001
1.16258001e+000, 2.46386006e-001, -2.56287567e-002, 1.14221752e+000, -3.02699134e-002, 3.72893095e-001
1.16258001e+000, 2.46386006e-001, -2.54287571e-002, 1.14233172e+000, -3.03737968e-002, 3.71552289e-001
1.16258001e+000, 2.46386006e-001, -2.52287574e-002, 1.14244604e+000, -3.04776784e-002, 3.70211452e-001
1.16258001e+000, 2.46386006e-001, -2.50287578e-002, 1.14256036e+000, -3.05815637e-002, 3.68870646e-001
1.16258001e+000, 2.46386006e-001, -2.48287581e-002, 1.14267457e+000, -3.06854453e-002, 3.67529780e-001
1.16258001e+000, 2.46386006e-001, -2.46287584e-002, 1.14278889e+000, -3.07893269e-002, 3.66188973e-001
1.16258001e+000, 2.46386006e-001, -2.44287588e-002, 1.14297795e+000, -3.09363790e-002, 3.64881337e-001
1.16258001e+000, 2.46386006e-001, -2.42287591e-002, 1.14317632e+000, -3.10887881e-002, 3.63577783e-001
1.16258001e+000, 2.46386006e-001, -2.40287594e-002, 1.14331055e+000, -3.12057585e-002, 3.62212867e-001
1.16258001e+000, 2.46386006e-001, -2.38287598e-002, 1.14342952e+000, -3.13141942e-002, 3.60833079e-001
1.16258001e+000, 2.46386006e-001, -2.36287601e-002, 1.14354849e+000, -3.14226225e-002, 3.59453321e-001
1.16258001e+000, 2.46386006e-001, -2.34287605e-002, 1.14366746e+000, -3.15310545e-002, 3.58073562e-001
1.16258001e+000, 2.46386006e-001, -2.32287608e-002, 1.14378631e+000, -3.16394903e-002, 3.56693834e-001
1.16258001e+000, 2.46386006e-001, -2.30287611e-002, 1.14390528e+000, -3.17479223e-002, 3.55314016e-001
1.16258001e+000, 2.46386006e-001, -2.28287615e-002, 1.14403725e+000, -3.18655930e-002, 3.53973657e-001
1.16258001e+000, 2.46386006e-001, -2.26287618e-002, 1.14417696e+000, -3.19888666e-002, 3.52657139e-001
1.16258001e+000, 2.46386006e-001, -2.24287622e-002, 1.14428413e+000, -3.20941694e-002, 3.51378113e-001
1.16258001e+000, 2.46386006e-001, -2.22287625e-002, 1.14435756e+000, -3.21808681e-002, 3.50138068e-001
1.16258001e+000, 2.46386006e-001, -2.20287628e-002, 1.14443111e+000, -3.22675705e-002, 3.48897994e-001
1.16258001e+000, 2.46386006e-001, -2.18287632e-002, 1.14450455e+000, -3.23542729e-002, 3.47657919e-001
1.16258001e+000, 2.46386006e-001, -2.16287635e-002, 1.14457810e+000, -3.24409716e-002, 3.46417844e-001
1.16258001e+000, 2.46386006e-001, -2.14287639e-002, 1.14465153e+000, -3.25276703e-002, 3.45177740e-001
1.16258001e+000, 2.46386006e-001, -2.12287642e-002, 1.14472508e+000, -3.26143689e-002, 3.43937695e-001
1.16258001e+000, 2.46386006e-001, -2.10287645e-002, 1.14478862e+000, -3.26945446e-002, 3.42695683e-001
1.16258001e+000, 2.46386006e-001, -2.08287649e-002, 1.14483154e+000, -3.27618457e-002, 3.41472477e-001
1.16258001e+000, 2.46386006e-001, -2.06287652e-002, 1.14491153e+000, -3.28539349e-002, 3.40268224e-001
1.16258001e+000, 2.46386006e-001, -2.04287656e-002, 1.14499152e+000, -3.29460278e-002, 3.39063972e-001
1.16258001e+000, 2.46386006e-001, -2.02287659e-002, 1.14507139e+000, -3.30381170e-002, 3.37859750e-001
1.16258001e+000, 2.46386006e-001, -2.00287662e-002, 1.14515150e+000, -3.31302062e-002, 3.36655527e-001
1.16258001e+000, 2.46386006e-001, -1.98287666e-002, 1.14523137e+000, -3.32222953e-002, 3.35451305e-001
1.16258001e+000, 2.46386006e-001, -1.96287669e-002, 1.14531136e+000, -3.33143845e-002, 3.34247053e-001
1.16258001e+000, 2.46386006e-001, -1.94287673e-002, 1.14539135e+000, -3.34064737e-002, 3.33042800e-001
1.16258001e+000, 2.46386006e-001, -1.92287676e-002, 1.14547133e+000, -3.34985666e-002, 3.31838548e-001
1.16258001e+000, 2.46386006e-001, -1.90287679e-002, 1.14555144e+000, -3.35906595e-002, 3.30634356e-001
1.16258001e+000, 2.46386006e-001, -1.88287683e-002, 1.14563131e+000, -3.36827487e-002, 3.29430103e-001
1.16258001e+000, 2.46386006e-001, -1.86287686e-002, 1.14571893e+000, -3.37804779e-002, 3.28223735e-001
1.16258001e+000, 2.46386006e-001, -1.84287690e-002, 1.14581037e+000, -3.38809602e-002, 3.27016294e-001
1.16258001e+000, 2.46386006e-001, -1.82287693e-002, 1.14585543e+000, -3.39518487e-002, 3.25855732e-001
1.16258001e+000, 2.46386006e-001, -1.80287696e-002, 1.14581871e+000, -3.39706540e-002, 3.24777752e-001
1.16258001e+000, 2.46386006e-001, -1.78287700e-002, 1.14578211e+000, -3.39894630e-002, 3.23699772e-001
1.16258001e+000, 2.46386006e-001, -1.76287703e-002, 1.14574528e+000, -3.40082683e-002, 3.22621793e-001
1.16258001e+000, 2.46386006e-001, -1.74287707e-002, 1.14570868e+000, -3.40270735e-002, 3.21543813e-001
1.16258001e+000, 2.46386006e-001, -1.72287710e-002, 1.14567196e+000, -3.40458825e-002, 3.20465803e-001
1.16258001e+000, 2.46386006e-001, -1.70287713e-002, 1.14563525e+000, -3.40646841e-002, 3.19387794e-001
1.16258001e+000, 2.46386006e-001, -1.68287717e-002, 1.14559865e+000, -3.40834893e-002, 3.18309844e-001
1.16258001e+000, 2.46386006e-001, -1.66287720e-002, 1.14556193e+000, -3.41022983e-002, 3.17231834e-001
1.16258001e+000, 2.46386006e-001, -1.64287724e-002, 1.14552021e+000, -3.41157019e-002, 3.16121757e-001
1.16258001e+000, 2.46386006e-001, -1.62287727e-002, 1.14548075e+000, -3.41297463e-002, 3.15003425e-001
1.16258001e+000, 2.46386006e-001, -1.60287730e-002, 1.14553118e+000, -3.41954604e-002, 3.13884079e-001
1.16258001e+000, 2.46386006e-001, -1.58287734e-002, 1.14558160e+000, -3.42611745e-002, 3.12764764e-001
1.16258001e+000, 2.46386006e-001, -1.56287737e-002, 1.14556348e+000, -3.42688337e-002, 3.11825722e-001
1.16258001e+000, 2.46386006e-001, -1.54287741e-002, 1.14555585e+000, -3.43019478e-002, 3.10836166e-001
1.16258001e+000, 2.46386006e-001, -1.52287744e-002, 1.14551520e+000, -3.43178548e-002, 3.09802771e-001
1.16258001e+000, 2.46386006e-001, -1.50287747e-002, 1.14547431e+000, -3.43337581e-002, 3.08769315e-001
1.16258001e+000, 2.46386006e-001, -1.48287751e-002, 1.14543355e+000, -3.43496613e-002, 3.07735920e-001
1.16258001e+000, 2.46386006e-001, -1.46287754e-002, 1.14539278e+000, -3.43655683e-002, 3.06702495e-001
1.16258001e+000, 2.46386006e-001, -1.44287758e-002, 1.14535201e+000, -3.43814716e-002, 3.05669069e-001
1.16258001e+000, 2.46386006e-001, -1.42287761e-002, 1.14531112e+000, -3.43973786e-002, 3.04635644e-001
1.16258001e+000, 2.46386006e-001, -1.40287764e-002, 1.14526534e+000, -3.44103798e-002, 3.03616971e-001
1.16258001e+000, 2.46386006e-001, -1.38287768e-002, 1.14519930e+000, -3.44115123e-002, 3.02658379e-001
1.16258001e+000, 2.46386006e-001, -1.36287771e-002, 1.14513314e+000, -3.44126523e-002, 3.01699758e-001
1.16258001e+000, 2.46386006e-001, -1.34287775e-002, 1.14506698e+000, -3.44137847e-002, 3.00741166e-001
1.16258001e+000, 2.46386006e-001, -1.32287778e-002, 1.14500093e+000, -3.44149247e-002, 2.99782574e-001
1.16258001e+000, 2.46386006e-001, -1.30287781e-002, 1.14493465e+000, -3.44160646e-002, 2.98824012e-001
1.16258001e+000, 2.46386006e-001, -1.28287785e-002, 1.14486861e+000, -3.44171971e-002, 2.97865391e-001
1.16258001e+000, 2.46386006e-001, -1.26287788e-002, 1.14480245e+000, -3.44183370e-002, 2.96906829e-001
1.16258001e+000, 2.46386006e-001, -1.24287792e-002, 1.14473617e+000, -3.44194733e-002, 2.95948207e-001
1.16258001e+000, 2.46386006e-001, -1.22287795e-002, 1.14467001e+000, -3.44206095e-002, 2.94989616e-001
1.16258001e+000, 2.46386006e-001, -1.20287798e-002, 1.14460385e+000, -3.44217457e-002, 2.94031024e-001
1.16258001e+000, 2.46386006e-001, -1.18287802e-002, 1.14454424e+000, -3.44277658e-002, 2.93049306e-001
1.16258001e+000, 2.46386006e-001, -1.16287805e-002, 1.14449596e+000, -3.44424695e-002, 2.92026490e-001
1.16258001e+000, 2.46386006e-001, -1.14287809e-002, 1.14444768e+000, -3.44571620e-002, 2.91003704e-001
1.16258001e+000, 2.46386006e-001, -1.12287812e-002, 1.14439952e+000, -3.44718657e-002, 2.89980888e-001
1.16258001e+000, 2.46386006e-001, -1.10287815e-002, 1.14435136e+000, -3.44865620e-002, 2.88958073e-001
1.16258001e+000, 2.46386006e-001, -1.08287819e-002, 1.14430308e+000, -3.45012620e-002, 2.87935317e-001
1.16258001e+000, 2.46386006e-001, -1.06287822e-002, 1.14425492e+000, -3.45159620e-002, 2.86912501e-001
1.16258001e+000, 2.46386006e-001, -1.04287826e-002, 1.14420652e+000, -3.45306583e-002, 2.85889685e-001
1.16258001e+000, 2.46386006e-001, -1.02287829e-002, 1.14406419e+000, -3.44688110e-002, 2.85103083e-001
1.16258001e+000, 2.46386006e-001, -1.00287832e-002, 1.14402151e+000, -3.44848856e-002, 2.84135729e-001
1.16258001e+000, 2.46386006e-001, -9.82878357e-003, 1.14399815e+000, -3.45115177e-002, 2.83212692e-001
1.16258001e+000, 2.46386006e-001, -9.62878391e-003, 1.14398694e+000, -3.45447809e-002, 2.82317489e-001
1.16258001e+000, 2.46386006e-001, -9.42878425e-003, 1.14397562e+000, -3.45780402e-002, 2.81422257e-001
1.16258001e+000, 2.46386006e-001, -9.22878459e-003, 1.14391088e+000, -3.45754214e-002, 2.80558079e-001
1.16258001e+000, 2.46386006e-001, -9.02878493e-003, 1.14382815e+000, -3.45606580e-002, 2.79704332e-001
1.16258001e+000, 2.46386006e-001, -8.82878527e-003, 1.14374816e+000, -3.45477015e-002, 2.78849423e-001
1.16258001e+000, 2.46386006e-001, -8.62878561e-003, 1.14367294e+000, -3.45376879e-002, 2.77992576e-001
1.16258001e+000, 2.46386006e-001, -8.42878595e-003, 1.14359653e+000, -3.45270373e-002, 2.77132481e-001
1.16258001e+000, 2.46386006e-001, -8.22878629e-003, 1.14351761e+000, -3.45150009e-002, 2.76265383e-001
1.16258001e+000, 2.46386006e-001, -8.02878663e-003, 1.14343870e+000, -3.45029682e-002, 2.75398254e-001
1.16258001e+000, 2.46386006e-001, -7.82878697e-003, 1.14335966e+000, -3.44909318e-002, 2.74531096e-001
1.16258001e+000, 2.46386006e-001, -7.62878684e-003, 1.14328063e+000, -3.44788916e-002, 2.73663968e-001
1.16258001e+000, 2.46386006e-001, -7.42878672e-003, 1.14320183e+000, -3.44668552e-002, 2.72796810e-001
1.16258001e+000, 2.46386006e-001, -7.22878659e-003, 1.14312291e+000, -3.44548225e-002, 2.71929711e-001
1.16258001e+000, 2.46386006e-001, -7.02878647e-003, 1.14304388e+000, -3.44427824e-002, 2.71062553e-001
1.16258001e+000, 2.46386006e-001, -6.82878634e-003, 1.14296496e+000, -3.44307460e-002, 2.70195425e-001
1.16258001e+000, 2.46386006e-001, -6.62878621e-003, 1.14288592e+000, -3.44187133e-002, 2.69328296e-001
1.16258001e+000, 2.46386006e-001, -6.42878609e-003, 1.14280689e+000, -3.44066732e-002, 2.68461168e-001
1.16258001e+000, 2.46386006e-001, -6.22878596e-003, 1.14272797e+000, -3.43946368e-002, 2.67594039e-001
1.16258001e+000, 2.46386006e-001, -6.02878584e-003, 1.14264894e+000, -3.43826041e-002, 2.66726881e-001
1.16258001e+000, 2.46386006e-001, -5.82878571e-003, 1.14257002e+000, -3.43705639e-002, 2.65859753e-001
1.16258001e+000, 2.46386006e-001, -5.62878558e-003, 1.14249229e+000, -3.43565345e-002, 2.65100539e-001
1.16258001e+000, 2.46386006e-001, -5.42878546e-003, 1.14241457e+000, -3.43425646e-002, 2.64337599e-001
1.16258001e+000, 2.46386006e-001, -5.22878533e-003, 1.14233685e+000, -3.43285985e-002, 2.63574660e-001
1.16258001e+000, 2.46386006e-001, -5.02878521e-003, 1.14224768e+000, -3.43084782e-002, 2.62799680e-001
1.16258001e+000, 2.46386006e-001, -4.82878508e-003, 1.14214718e+000, -3.42823006e-002, 2.62012839e-001
1.16258001e+000, 2.46386006e-001, -4.62878495e-003, 1.14204681e+000, -3.42561267e-002, 2.61225998e-001
1.16258001e+000, 2.46386006e-001, -4.42878483e-003, 1.14194632e+000, -3.42299491e-002, 2.60439187e-001
1.16258001e+000, 2.46386006e-001, -4.22878470e-003, 1.14184594e+000, -3.42037752e-002, 2.59652376e-001
1.16258001e+000, 2.46386006e-001, -4.02878458e-003, 1.14174569e+000, -3.41776051e-002, 2.58865535e-001
1.16258001e+000, 2.46386006e-001, -3.82878445e-003, 1.14164507e+000, -3.41514237e-002, 2.58078694e-001
1.16258001e+000, 2.46386006e-001, -3.62878432e-003, 1.14154482e+000, -3.41252536e-002, 2.57291883e-001
1.16258001e+000, 2.46386006e-001, -3.42878420e-003, 1.14144433e+000, -3.40990759e-002, 2.56505042e-001
1.16258001e+000, 2.46386006e-001, -3.22878407e-003, 1.14134383e+000, -3.40729021e-002, 2.55718201e-001