#++++++++++++++++++++++++++++++++++++++++++++++++++++++++++++++++++++++++++++++++++++++++++++++++++++++++++++++++++++++++++++++++++++++
#
#   HiLiftPW-2 Velocity DATA SUBMITTAL FORM Case 2b (Version 1), March 2013
#
#   CASE 2 is a required Reynolds number study at 8 different angles-of-attack each.
#   Config 4 (including Slat Tracks and Flap Track Fairings) should be used.
#   A comparable *Medium* mesh density from the Grid Convergence Study should be used.
#   The required parts of this case (Case 2a and 2b) should be run FULLY TURBULENT (no forced transition).
#   An optional part of this case (Case 2c) can be run with transition specified or predicted.
#
#   This data file only asks for a subset of information to be reported: AoA=7, 18.5, and 21 only.
#
#       NOMENCLATURE:
#              ALPHA:	Angle of attack, deg.
#                 FT:   Fully Turbulent
#                 TR:   Transition specified or computed
#              X,Y,Z:   Cartesian coordinates, in mm
#             u/Uinf:   Velocity component in X-direction relative to freestream
#             v/Uinf:   Velocity component in Y-direction relative to freestream
#             w/Uinf:   Velocity component in Z-direction relative to freestream
#
#                XXX:	Participant ID (To be assigned by HiLiftPW-1 workshop committee)
#
#    FLOW CONDITIONS CASE 2b:
#                 Mach Number: 0.175
#             Reynolds Number: 15.1 million (based on MAC)
#             Freestream Temp: 114.0 K (205.2 R)
#  Freestream Static Pressure: 295000 Pa (42.7861 psi)
#
#              NOTES: 1. All numerical data fields can be free-formatted
#                     2. Please use at least 3 decimal places in the numerical values for velocity
#                     3. If optional data is NOT provided, please fill data fields with a numerical value of "-999" 
#                     4. Results are requested for both medium and fine grids
#                     5. There are no experimental velocity data for these high-Re conditions
#
#++++++++++++++++++++++++++++++++++++++++++++++++++++++++++++++++++++++++++++++++++++++++++++++++++++++++++++++++++++++++++++++++++++++

TITLE = "007.1"

VARIABLES = "X" "Y" "Z" "u/Uinf" "v/Uinf" "w/Uinf"

#-----------------------------------------------------------------------------------
# ALPHA 7:
#-----------------------------------------------------------------------------------
ZONE T="007.1 case2b a7 Medium, p1, wB, line 1"
 1.162579956E+03 2.463860016E+02 -6.002868271E+01 5.859012008E-01 1.715438515E-01 9.084328413E-01
 1.162579956E+03 2.463860016E+02 -5.982868195E+01 6.132331491E-01 1.672386080E-01 9.434635043E-01
 1.162579956E+03 2.463860016E+02 -5.962868500E+01 6.340764165E-01 1.612766385E-01 9.675394297E-01
 1.162579956E+03 2.463860016E+02 -5.942868423E+01 6.503109932E-01 1.537973881E-01 9.833515286E-01
 1.162579956E+03 2.463860016E+02 -5.922868347E+01 6.630921364E-01 1.459210515E-01 9.928649664E-01
 1.162579956E+03 2.463860016E+02 -5.902868652E+01 6.728948355E-01 1.378419846E-01 9.970752001E-01
 1.162579956E+03 2.463860016E+02 -5.882868576E+01 6.805149317E-01 1.296624243E-01 9.973762631E-01
 1.162579956E+03 2.463860016E+02 -5.862868500E+01 6.874285340E-01 1.198010221E-01 9.957299232E-01
 1.162579956E+03 2.463860016E+02 -5.842868423E+01 6.930580735E-01 1.097760424E-01 9.918405414E-01
 1.162579956E+03 2.463860016E+02 -5.822868729E+01 6.978565454E-01 9.970850497E-02 9.865561128E-01
 1.162579956E+03 2.463860016E+02 -5.802868271E+01 7.017306089E-01 8.959475905E-02 9.796893597E-01
 1.162579956E+03 2.463860016E+02 -5.782868195E+01 7.053427100E-01 7.948742062E-02 9.724033475E-01
 1.162579956E+03 2.463860016E+02 -5.762868500E+01 7.085880041E-01 6.940884888E-02 9.645012617E-01
 1.162579956E+03 2.463860016E+02 -5.742868423E+01 7.114239335E-01 5.947531760E-02 9.563234448E-01
 1.162579956E+03 2.463860016E+02 -5.722868347E+01 7.137205601E-01 4.982713982E-02 9.476755261E-01
 1.162579956E+03 2.463860016E+02 -5.702868652E+01 7.158797979E-01 4.016472027E-02 9.391531944E-01
 1.162579956E+03 2.463860016E+02 -5.682868576E+01 7.180253863E-01 3.074978106E-02 9.302190542E-01
 1.162579956E+03 2.463860016E+02 -5.662868500E+01 7.197118402E-01 2.127465233E-02 9.213971496E-01
 1.162579956E+03 2.463860016E+02 -5.642868423E+01 7.207107544E-01 1.201976370E-02 9.120736122E-01
 1.162579956E+03 2.463860016E+02 -5.622868729E+01 7.217021585E-01 2.830794780E-03 9.027907848E-01
 1.162579956E+03 2.463860016E+02 -5.602868652E+01 7.228019238E-01 -6.030846387E-03 8.937262893E-01
 1.162579956E+03 2.463860016E+02 -5.582868195E+01 7.239884138E-01 -1.474423427E-02 8.844313622E-01
 1.162579956E+03 2.463860016E+02 -5.562868500E+01 7.251454592E-01 -2.339041233E-02 8.754196763E-01
 1.162579956E+03 2.463860016E+02 -5.542868423E+01 7.265186310E-01 -3.168089315E-02 8.665152788E-01
 1.162579956E+03 2.463860016E+02 -5.522868347E+01 7.279301882E-01 -3.971588612E-02 8.577988148E-01
 1.162579956E+03 2.463860016E+02 -5.502868271E+01 7.293379307E-01 -4.778740928E-02 8.490578532E-01
 1.162579956E+03 2.463860016E+02 -5.482868576E+01 7.308769226E-01 -5.570635572E-02 8.402813077E-01
 1.162579956E+03 2.463860016E+02 -5.462868500E+01 7.323458791E-01 -6.325460225E-02 8.317001462E-01
 1.162579956E+03 2.463860016E+02 -5.442868423E+01 7.337921858E-01 -7.078655809E-02 8.231566548E-01
 1.162579956E+03 2.463860016E+02 -5.422868729E+01 7.351610065E-01 -7.831057906E-02 8.145747781E-01
 1.162579956E+03 2.463860016E+02 -5.402868652E+01 7.313197255E-01 -8.707244694E-02 8.003253937E-01
 1.162579956E+03 2.463860016E+02 -5.382868576E+01 7.261289358E-01 -9.564249963E-02 7.851493359E-01
 1.162579956E+03 2.463860016E+02 -5.362868500E+01 7.209380269E-01 -1.042127162E-01 7.699729800E-01
 1.162579956E+03 2.463860016E+02 -5.342868423E+01 7.190833688E-01 -1.112961099E-01 7.595918179E-01
 1.162579956E+03 2.463860016E+02 -5.322868347E+01 7.197722793E-01 -1.169635579E-01 7.516302466E-01
 1.162579956E+03 2.463860016E+02 -5.302868271E+01 7.209340930E-01 -1.219640151E-01 7.443678975E-01
 1.162579956E+03 2.463860016E+02 -5.282868576E+01 7.228458524E-01 -1.236310229E-01 7.371910810E-01
 1.162579956E+03 2.463860016E+02 -5.262868500E+01 7.249434590E-01 -1.257194579E-01 7.303801775E-01
 1.162579956E+03 2.463860016E+02 -5.242868423E+01 7.279976606E-01 -1.299765408E-01 7.254521847E-01
 1.162579956E+03 2.463860016E+02 -5.222868729E+01 7.310518622E-01 -1.342336386E-01 7.205241919E-01
 1.162579956E+03 2.463860016E+02 -5.202868652E+01 7.341060042E-01 -1.384907216E-01 7.155961394E-01
 1.162579956E+03 2.463860016E+02 -5.182868576E+01 7.371602058E-01 -1.427478045E-01 7.106681466E-01
 1.162579956E+03 2.463860016E+02 -5.162868500E+01 7.396125197E-01 -1.427545696E-01 7.055623531E-01
 1.162579956E+03 2.463860016E+02 -5.142868423E+01 7.420160770E-01 -1.424165666E-01 7.004420161E-01
 1.162579956E+03 2.463860016E+02 -5.122868347E+01 7.444195747E-01 -1.420785934E-01 6.953217983E-01
 1.162579956E+03 2.463860016E+02 -5.102868271E+01 7.468230724E-01 -1.417406052E-01 6.902015209E-01
 1.162579956E+03 2.463860016E+02 -5.082868576E+01 7.492265701E-01 -1.414026171E-01 6.850813031E-01
 1.162579956E+03 2.463860016E+02 -5.062868500E+01 7.516300082E-01 -1.410646290E-01 6.799610257E-01
 1.162579956E+03 2.463860016E+02 -5.042868423E+01 7.540082335E-01 -1.408243626E-01 6.750835776E-01
 1.162579956E+03 2.463860016E+02 -5.022868347E+01 7.564262152E-01 -1.401157975E-01 6.711041927E-01
 1.162579956E+03 2.463860016E+02 -5.002868652E+01 7.590495348E-01 -1.379074454E-01 6.680265069E-01
 1.162579956E+03 2.463860016E+02 -4.982868576E+01 7.691639066E-01 -1.321042180E-01 6.666761637E-01
 1.162579956E+03 2.463860016E+02 -4.962868500E+01 7.838630676E-01 -1.241008416E-01 6.663829088E-01
 1.162579956E+03 2.463860016E+02 -4.942868805E+01 8.009100556E-01 -1.158606037E-01 6.655473113E-01
 1.162579956E+03 2.463860016E+02 -4.922868347E+01 8.190995455E-01 -1.075049788E-01 6.644477844E-01
 1.162579956E+03 2.463860016E+02 -4.902868271E+01 8.400846720E-01 -9.782364964E-02 6.644454002E-01
 1.162579956E+03 2.463860016E+02 -4.882868195E+01 8.691710234E-01 -8.898342401E-02 6.717137694E-01
 1.162579956E+03 2.463860016E+02 -4.862868500E+01 9.074603319E-01 -8.248645067E-02 6.873420477E-01
 1.162579956E+03 2.463860016E+02 -4.842868423E+01 9.302130342E-01 -7.543110847E-02 6.934130192E-01
 1.162579956E+03 2.463860016E+02 -4.822868347E+01 9.529657364E-01 -6.837575883E-02 6.994839907E-01
 1.162579956E+03 2.463860016E+02 -4.802868652E+01 9.751249552E-01 -6.135010347E-02 7.053102255E-01
 1.162579956E+03 2.463860016E+02 -4.782868576E+01 1.005587816E+00 -5.360468850E-02 7.177780271E-01
 1.162579956E+03 2.463860016E+02 -4.762868500E+01 1.038355112E+00 -4.568152875E-02 7.318563461E-01
 1.162579956E+03 2.463860016E+02 -4.742868805E+01 1.068226337E+00 -3.889128566E-02 7.449312210E-01
 1.162579956E+03 2.463860016E+02 -4.722868729E+01 1.093570232E+00 -3.449715301E-02 7.561822534E-01
 1.162579956E+03 2.463860016E+02 -4.702868271E+01 1.119247913E+00 -3.030727990E-02 7.674121857E-01
 1.162579956E+03 2.463860016E+02 -4.682868195E+01 1.134768009E+00 -2.990378626E-02 7.736188173E-01
 1.162579956E+03 2.463860016E+02 -4.662868500E+01 1.149492025E+00 -3.034364432E-02 7.788836360E-01
 1.162579956E+03 2.463860016E+02 -4.642868423E+01 1.159472823E+00 -3.134808317E-02 7.809513211E-01
 1.162579956E+03 2.463860016E+02 -4.622868347E+01 1.168741584E+00 -3.240402415E-02 7.826007605E-01
 1.162579956E+03 2.463860016E+02 -4.602868652E+01 1.181509733E+00 -3.297971562E-02 7.845886350E-01
 1.162579956E+03 2.463860016E+02 -4.582868576E+01 1.194277763E+00 -3.355540335E-02 7.865765095E-01
 1.162579956E+03 2.463860016E+02 -4.562868500E+01 1.200633049E+00 -3.446422890E-02 7.862276435E-01
 1.162579956E+03 2.463860016E+02 -4.542868423E+01 1.205022693E+00 -3.547516465E-02 7.851625681E-01
 1.162579956E+03 2.463860016E+02 -4.522868729E+01 1.209412336E+00 -3.648610413E-02 7.840974331E-01
 1.162579956E+03 2.463860016E+02 -4.502868652E+01 1.213074803E+00 -3.774636239E-02 7.815351486E-01
 1.162579956E+03 2.463860016E+02 -4.482868195E+01 1.216353178E+00 -3.918502852E-02 7.785655856E-01
 1.162579956E+03 2.463860016E+02 -4.462868500E+01 1.219374418E+00 -4.087463766E-02 7.764056921E-01
 1.162579956E+03 2.463860016E+02 -4.442868423E+01 1.222395778E+00 -4.256425053E-02 7.742457986E-01
 1.162579956E+03 2.463860016E+02 -4.422868347E+01 1.225195646E+00 -4.444354400E-02 7.723753452E-01
 1.162579956E+03 2.463860016E+02 -4.402868271E+01 1.227779984E+00 -4.650768265E-02 7.707870603E-01
 1.162579956E+03 2.463860016E+02 -4.382868576E+01 1.230249286E+00 -4.838477448E-02 7.690472603E-01
 1.162579956E+03 2.463860016E+02 -4.362868500E+01 1.232577443E+00 -5.003186688E-02 7.671211958E-01
 1.162579956E+03 2.463860016E+02 -4.342868423E+01 1.234905481E+00 -5.167895555E-02 7.651950717E-01
 1.162579956E+03 2.463860016E+02 -4.322868729E+01 1.237233520E+00 -5.332604423E-02 7.632690072E-01
 1.162579956E+03 2.463860016E+02 -4.302868652E+01 1.239159942E+00 -5.467280000E-02 7.614446878E-01
 1.162579956E+03 2.463860016E+02 -4.282868576E+01 1.240986347E+00 -5.590778962E-02 7.595295310E-01
 1.162579956E+03 2.463860016E+02 -4.262868500E+01 1.242812753E+00 -5.714280531E-02 7.576143146E-01
 1.162579956E+03 2.463860016E+02 -4.242868423E+01 1.244853139E+00 -5.852741376E-02 7.556502223E-01
 1.162579956E+03 2.463860016E+02 -4.222868347E+01 1.247489810E+00 -6.032884121E-02 7.535500526E-01
 1.162579956E+03 2.463860016E+02 -4.202868271E+01 1.250126481E+00 -6.213027239E-02 7.514498830E-01
 1.162579956E+03 2.463860016E+02 -4.182868576E+01 1.252763152E+00 -6.393169612E-02 7.493497133E-01
 1.162579956E+03 2.463860016E+02 -4.162868500E+01 1.255399823E+00 -6.573312730E-02 7.472494841E-01
 1.162579956E+03 2.463860016E+02 -4.142868423E+01 1.257467031E+00 -6.712298095E-02 7.451098561E-01
 1.162579956E+03 2.463860016E+02 -4.122868729E+01 1.258966088E+00 -6.810218841E-02 7.429308295E-01
 1.162579956E+03 2.463860016E+02 -4.102868652E+01 1.260465145E+00 -6.908140332E-02 7.407518029E-01
 1.162579956E+03 2.463860016E+02 -4.082868576E+01 1.261964202E+00 -7.006061822E-02 7.385727763E-01
 1.162579956E+03 2.463860016E+02 -4.062868500E+01 1.263463140E+00 -7.103983313E-02 7.363938093E-01
 1.162579956E+03 2.463860016E+02 -4.042868423E+01 1.264962316E+00 -7.201906294E-02 7.342147231E-01
 1.162579956E+03 2.463860016E+02 -4.022868347E+01 1.266461372E+00 -7.299827784E-02 7.320356965E-01
 1.162579956E+03 2.463860016E+02 -4.002868271E+01 1.267960429E+00 -7.397749275E-02 7.298566699E-01
 1.162579956E+03 2.463860016E+02 -3.982868576E+01 1.269459486E+00 -7.495670021E-02 7.276776433E-01
 1.162579956E+03 2.463860016E+02 -3.962868500E+01 1.271140218E+00 -7.603492588E-02 7.254531384E-01
 1.162579956E+03 2.463860016E+02 -3.942868423E+01 1.272572994E+00 -7.698106021E-02 7.237088084E-01
 1.162579956E+03 2.463860016E+02 -3.922868347E+01 1.274484992E+00 -7.822678983E-02 7.220679522E-01
 1.162579956E+03 2.463860016E+02 -3.902868652E+01 1.276041269E+00 -7.935882360E-02 7.200188637E-01
 1.162579956E+03 2.463860016E+02 -3.882868576E+01 1.277413130E+00 -8.043195307E-02 7.177582979E-01
 1.162579956E+03 2.463860016E+02 -3.862868500E+01 1.278883815E+00 -8.156709373E-02 7.155050635E-01
 1.162579956E+03 2.463860016E+02 -3.842868805E+01 1.280463457E+00 -8.277061582E-02 7.132599354E-01
 1.162579956E+03 2.463860016E+02 -3.822868347E+01 1.282100320E+00 -8.399508148E-02 7.107293606E-01
 1.162579956E+03 2.463860016E+02 -3.802868271E+01 1.283756495E+00 -8.522655815E-02 7.081029415E-01
 1.162579956E+03 2.463860016E+02 -3.782868195E+01 1.285412669E+00 -8.645803481E-02 7.054765224E-01
 1.162579956E+03 2.463860016E+02 -3.762868500E+01 1.287068725E+00 -8.768951893E-02 7.028501034E-01
 1.162579956E+03 2.463860016E+02 -3.742868423E+01 1.288724899E+00 -8.892099559E-02 7.002236843E-01
 1.162579956E+03 2.463860016E+02 -3.722868347E+01 1.289850116E+00 -8.989419788E-02 6.979119182E-01
 1.162579956E+03 2.463860016E+02 -3.702868652E+01 1.290485978E+00 -9.062939137E-02 6.958900690E-01
 1.162579956E+03 2.463860016E+02 -3.682868576E+01 1.291121840E+00 -9.136458486E-02 6.938682199E-01
 1.162579956E+03 2.463860016E+02 -3.662868500E+01 1.291757703E+00 -9.209978580E-02 6.918463707E-01
 1.162579956E+03 2.463860016E+02 -3.642868805E+01 1.292652130E+00 -9.279347211E-02 6.897275448E-01
 1.162579956E+03 2.463860016E+02 -3.622868729E+01 1.293265224E+00 -9.332607687E-02 6.873537898E-01
 1.162579956E+03 2.463860016E+02 -3.602868271E+01 1.293846726E+00 -9.384278208E-02 6.849551797E-01
 1.162579956E+03 2.463860016E+02 -3.582868195E+01 1.294428110E+00 -9.435947984E-02 6.825566292E-01
 1.162579956E+03 2.463860016E+02 -3.562868500E+01 1.295009613E+00 -9.487617016E-02 6.801580787E-01
 1.162579956E+03 2.463860016E+02 -3.542868423E+01 1.295590997E+00 -9.539286792E-02 6.777595282E-01
 1.162579956E+03 2.463860016E+02 -3.522868347E+01 1.296172500E+00 -9.590956569E-02 6.753609776E-01
 1.162579956E+03 2.463860016E+02 -3.502868652E+01 1.296688080E+00 -9.635785222E-02 6.729420424E-01
 1.162579956E+03 2.463860016E+02 -3.482868576E+01 1.296927691E+00 -9.651950002E-02 6.704378724E-01
 1.162579956E+03 2.463860016E+02 -3.462868500E+01 1.297167182E+00 -9.668114781E-02 6.679337025E-01
 1.162579956E+03 2.463860016E+02 -3.442868423E+01 1.297938108E+00 -9.715934098E-02 6.657921076E-01
 1.162579956E+03 2.463860016E+02 -3.422868729E+01 1.298819900E+00 -9.771386534E-02 6.637219787E-01
 1.162579956E+03 2.463860016E+02 -3.402868652E+01 1.299478054E+00 -9.821593761E-02 6.614643931E-01
 1.162579956E+03 2.463860016E+02 -3.382868195E+01 1.300136209E+00 -9.871800989E-02 6.592068076E-01
 1.162579956E+03 2.463860016E+02 -3.362868500E+01 1.300794363E+00 -9.922007471E-02 6.569492221E-01
 1.162579956E+03 2.463860016E+02 -3.342868423E+01 1.301445127E+00 -9.964460880E-02 6.547303200E-01
 1.162579956E+03 2.463860016E+02 -3.322868347E+01 1.302092791E+00 -1.000372618E-01 6.525272727E-01
 1.162579956E+03 2.463860016E+02 -3.302868271E+01 1.302740455E+00 -1.004299149E-01 6.503242254E-01
 1.162579956E+03 2.463860016E+02 -3.282868576E+01 1.303388119E+00 -1.008225679E-01 6.481211782E-01
 1.162579956E+03 2.463860016E+02 -3.262868500E+01 1.304035783E+00 -1.012152135E-01 6.459181309E-01
 1.162579956E+03 2.463860016E+02 -3.242868423E+01 1.304683447E+00 -1.016078666E-01 6.437150836E-01
 1.162579956E+03 2.463860016E+02 -3.222868729E+01 1.305281639E+00 -1.019836441E-01 6.415309310E-01
 1.162579956E+03 2.463860016E+02 -3.202868652E+01 1.305301905E+00 -1.021628454E-01 6.395669580E-01
 1.162579956E+03 2.463860016E+02 -3.182868576E+01 1.305322289E+00 -1.023420468E-01 6.376029849E-01
 1.162579956E+03 2.463860016E+02 -3.162868309E+01 1.305647731E+00 -1.026138663E-01 6.357063055E-01
 1.162579956E+03 2.463860016E+02 -3.142868423E+01 1.306139231E+00 -1.029361486E-01 6.338462830E-01
 1.162579956E+03 2.463860016E+02 -3.122868538E+01 1.306630731E+00 -1.032584310E-01 6.319862604E-01
 1.162579956E+03 2.463860016E+02 -3.102868462E+01 1.307135940E+00 -1.035597697E-01 6.301389337E-01
 1.162579956E+03 2.463860016E+02 -3.082868385E+01 1.307669640E+00 -1.038170606E-01 6.283184886E-01
 1.162579956E+03 2.463860016E+02 -3.062868500E+01 1.308203340E+00 -1.040743589E-01 6.264979839E-01
 1.162579956E+03 2.463860016E+02 -3.042868614E+01 1.308737040E+00 -1.043316573E-01 6.246775389E-01
 1.162579956E+03 2.463860016E+02 -3.022868538E+01 1.309246659E+00 -1.045576632E-01 6.229230762E-01
 1.162579956E+03 2.463860016E+02 -3.002868462E+01 1.309754252E+00 -1.047811359E-01 6.211740375E-01
 1.162579956E+03 2.463860016E+02 -2.982868385E+01 1.310321331E+00 -1.051096767E-01 6.188939810E-01
 1.162579956E+03 2.463860016E+02 -2.962868500E+01 1.310912728E+00 -1.054810956E-01 6.163973212E-01
 1.162579956E+03 2.463860016E+02 -2.942868423E+01 1.311504126E+00 -1.058525071E-01 6.139007211E-01
 1.162579956E+03 2.463860016E+02 -2.922868538E+01 1.311782241E+00 -1.060301140E-01 6.115048528E-01
 1.162579956E+03 2.463860016E+02 -2.902868652E+01 1.312012553E+00 -1.061782315E-01 6.091243029E-01
 1.162579956E+03 2.463860016E+02 -2.882868385E+01 1.312242985E+00 -1.063263491E-01 6.067436934E-01
 1.162579956E+03 2.463860016E+02 -2.862868500E+01 1.312434673E+00 -1.065765992E-01 6.046087146E-01
 1.162579956E+03 2.463860016E+02 -2.842868423E+01 1.312601089E+00 -1.068935990E-01 6.026341915E-01
 1.162579956E+03 2.463860016E+02 -2.822868538E+01 1.312767625E+00 -1.072105914E-01 6.006596088E-01
 1.162579956E+03 2.463860016E+02 -2.802868652E+01 1.312934041E+00 -1.075275913E-01 5.986850858E-01
 1.162579956E+03 2.463860016E+02 -2.782868385E+01 1.313096762E+00 -1.078428179E-01 5.967088938E-01
 1.162579956E+03 2.463860016E+02 -2.762868500E+01 1.313101292E+00 -1.080824658E-01 5.946644545E-01
 1.162579956E+03 2.463860016E+02 -2.742868423E+01 1.313105702E+00 -1.083221063E-01 5.926200151E-01
 1.162579956E+03 2.463860016E+02 -2.722868538E+01 1.313110232E+00 -1.085617542E-01 5.905756354E-01
 1.162579956E+03 2.463860016E+02 -2.702868462E+01 1.312938929E+00 -1.086374819E-01 5.886448026E-01
 1.162579956E+03 2.463860016E+02 -2.682868576E+01 1.312692165E+00 -1.086429209E-01 5.867626667E-01
 1.162579956E+03 2.463860016E+02 -2.662868500E+01 1.312445521E+00 -1.086483523E-01 5.848805308E-01
 1.162579956E+03 2.463860016E+02 -2.642868423E+01 1.312468767E+00 -1.088867113E-01 5.831487179E-01
 1.162579956E+03 2.463860016E+02 -2.622868538E+01 1.312592626E+00 -1.092116833E-01 5.814727545E-01
 1.162579956E+03 2.463860016E+02 -2.602868462E+01 1.312716365E+00 -1.095366627E-01 5.797968507E-01
 1.162579956E+03 2.463860016E+02 -2.582868576E+01 1.312840104E+00 -1.098616421E-01 5.781208873E-01
 1.162579956E+03 2.463860016E+02 -2.562868500E+01 1.312963963E+00 -1.101866215E-01 5.764449239E-01
 1.162579956E+03 2.463860016E+02 -2.542868423E+01 1.313087702E+00 -1.105116010E-01 5.747689605E-01
 1.162579956E+03 2.463860016E+02 -2.522868538E+01 1.313212395E+00 -1.108334884E-01 5.731024146E-01
 1.162579956E+03 2.463860016E+02 -2.502868462E+01 1.313280940E+00 -1.110327542E-01 5.714997649E-01
 1.162579956E+03 2.463860016E+02 -2.482868576E+01 1.313219309E+00 -1.110552177E-01 5.698237419E-01
 1.162579956E+03 2.463860016E+02 -2.462868309E+01 1.313157678E+00 -1.110776737E-01 5.681477189E-01
 1.162579956E+03 2.463860016E+02 -2.442868423E+01 1.313095927E+00 -1.111001298E-01 5.664716959E-01
 1.162579956E+03 2.463860016E+02 -2.422868538E+01 1.313034296E+00 -1.111225933E-01 5.647956729E-01
 1.162579956E+03 2.463860016E+02 -2.402868462E+01 1.312913656E+00 -1.111117303E-01 5.630891323E-01
 1.162579956E+03 2.463860016E+02 -2.382868576E+01 1.312746525E+00 -1.110676005E-01 5.613765121E-01
 1.162579956E+03 2.463860016E+02 -2.362868500E+01 1.312531233E+00 -1.109310389E-01 5.598086119E-01
 1.162579956E+03 2.463860016E+02 -2.342868423E+01 1.312315941E+00 -1.107944772E-01 5.582406521E-01
 1.162579956E+03 2.463860016E+02 -2.322868538E+01 1.312100649E+00 -1.106579155E-01 5.566727519E-01
 1.162579956E+03 2.463860016E+02 -2.302868462E+01 1.311885357E+00 -1.105213463E-01 5.551047921E-01
 1.162579956E+03 2.463860016E+02 -2.282868576E+01 1.311670065E+00 -1.103847846E-01 5.535368919E-01
 1.162579956E+03 2.463860016E+02 -2.262868500E+01 1.311454773E+00 -1.102482229E-01 5.519689322E-01
 1.162579956E+03 2.463860016E+02 -2.242868423E+01 1.311239481E+00 -1.101116613E-01 5.504010320E-01
 1.162579956E+03 2.463860016E+02 -2.222868347E+01 1.311024189E+00 -1.099750996E-01 5.488330722E-01
 1.162579956E+03 2.463860016E+02 -2.202868462E+01 1.311021328E+00 -1.099610478E-01 5.472906828E-01
 1.162579956E+03 2.463860016E+02 -2.182868576E+01 1.311180830E+00 -1.100406796E-01 5.457678437E-01
 1.162579956E+03 2.463860016E+02 -2.162868500E+01 1.311340451E+00 -1.101203039E-01 5.442449450E-01
 1.162579956E+03 2.463860016E+02 -2.142868614E+01 1.311539531E+00 -1.102644131E-01 5.425398350E-01
 1.162579956E+03 2.463860016E+02 -2.122868347E+01 1.311766863E+00 -1.104543507E-01 5.407051444E-01
 1.162579956E+03 2.463860016E+02 -2.102868462E+01 1.311994195E+00 -1.106442958E-01 5.388704538E-01
 1.162579956E+03 2.463860016E+02 -2.082868385E+01 1.312201858E+00 -1.107375249E-01 5.369631052E-01
 1.162579956E+03 2.463860016E+02 -2.062868500E+01 1.312401891E+00 -1.107932255E-01 5.350276232E-01
 1.162579956E+03 2.463860016E+02 -2.042868614E+01 1.312510014E+00 -1.108056828E-01 5.331397653E-01
 1.162579956E+03 2.463860016E+02 -2.022868347E+01 1.312367082E+00 -1.107000113E-01 5.313822627E-01
 1.162579956E+03 2.463860016E+02 -2.002868462E+01 1.312224150E+00 -1.105943471E-01 5.296248198E-01
 1.162579956E+03 2.463860016E+02 -1.982868385E+01 1.312081218E+00 -1.104886830E-01 5.278673172E-01
 1.162579956E+03 2.463860016E+02 -1.962868500E+01 1.311938167E+00 -1.103830114E-01 5.261098146E-01
 1.162579956E+03 2.463860016E+02 -1.942868614E+01 1.311795235E+00 -1.102773473E-01 5.243523121E-01
 1.162579956E+03 2.463860016E+02 -1.922868538E+01 1.311652303E+00 -1.101716757E-01 5.225948095E-01
 1.162579956E+03 2.463860016E+02 -1.902868462E+01 1.311453581E+00 -1.101048887E-01 5.209300518E-01
 1.162579956E+03 2.463860016E+02 -1.882868385E+01 1.311154127E+00 -1.101082116E-01 5.194325447E-01
 1.162579956E+03 2.463860016E+02 -1.862868500E+01 1.310854673E+00 -1.101115346E-01 5.179350376E-01
 1.162579956E+03 2.463860016E+02 -1.842868423E+01 1.310402155E+00 -1.098785028E-01 5.165899396E-01
 1.162579956E+03 2.463860016E+02 -1.822868538E+01 1.309849977E+00 -1.094913408E-01 5.153442025E-01
 1.162579956E+03 2.463860016E+02 -1.802868462E+01 1.309297800E+00 -1.091041788E-01 5.140984654E-01
 1.162579956E+03 2.463860016E+02 -1.782868385E+01 1.308745623E+00 -1.087170243E-01 5.128527284E-01
 1.162579956E+03 2.463860016E+02 -1.762868500E+01 1.308258057E+00 -1.083835959E-01 5.115725398E-01
 1.162579956E+03 2.463860016E+02 -1.742868423E+01 1.307915330E+00 -1.081701294E-01 5.101969242E-01
 1.162579956E+03 2.463860016E+02 -1.722868538E+01 1.307577968E+00 -1.079589128E-01 5.087533593E-01
 1.162579956E+03 2.463860016E+02 -1.702868652E+01 1.307240725E+00 -1.077476963E-01 5.073097944E-01
 1.162579956E+03 2.463860016E+02 -1.682868385E+01 1.306903481E+00 -1.075364724E-01 5.058662891E-01
 1.162579956E+03 2.463860016E+02 -1.662868500E+01 1.306566238E+00 -1.073252559E-01 5.044227242E-01
 1.162579956E+03 2.463860016E+02 -1.642868423E+01 1.306228995E+00 -1.071140394E-01 5.029791594E-01
 1.162579956E+03 2.463860016E+02 -1.622868538E+01 1.305891752E+00 -1.069028154E-01 5.015355945E-01
 1.162579956E+03 2.463860016E+02 -1.602868462E+01 1.305554509E+00 -1.066915989E-01 5.000920892E-01
 1.162579956E+03 2.463860016E+02 -1.582868385E+01 1.305217266E+00 -1.064803824E-01 4.986485243E-01
 1.162579956E+03 2.463860016E+02 -1.562868404E+01 1.304880023E+00 -1.062691584E-01 4.972049594E-01
 1.162579956E+03 2.463860016E+02 -1.542868423E+01 1.304625511E+00 -1.061118618E-01 4.957711995E-01
 1.162579956E+03 2.463860016E+02 -1.522868538E+01 1.304589033E+00 -1.060963571E-01 4.943631589E-01
 1.162579956E+03 2.463860016E+02 -1.502868462E+01 1.304552555E+00 -1.060808599E-01 4.929551184E-01
 1.162579956E+03 2.463860016E+02 -1.482868481E+01 1.304444432E+00 -1.060363278E-01 4.915699661E-01
 1.162579956E+03 2.463860016E+02 -1.462868500E+01 1.304189086E+00 -1.059321538E-01 4.902318120E-01
 1.162579956E+03 2.463860016E+02 -1.442868423E+01 1.303933740E+00 -1.058279723E-01 4.888936579E-01
 1.162579956E+03 2.463860016E+02 -1.422868443E+01 1.303690434E+00 -1.057109833E-01 4.875998199E-01
 1.162579956E+03 2.463860016E+02 -1.402868557E+01 1.303457379E+00 -1.055830941E-01 4.863436818E-01
 1.162579956E+03 2.463860016E+02 -1.382868481E+01 1.303224325E+00 -1.054552048E-01 4.850875437E-01
 1.162579956E+03 2.463860016E+02 -1.362868500E+01 1.302955151E+00 -1.053262800E-01 4.837621748E-01
 1.162579956E+03 2.463860016E+02 -1.342868519E+01 1.302639246E+00 -1.051960140E-01 4.823470712E-01
 1.162579956E+03 2.463860016E+02 -1.322868443E+01 1.302323341E+00 -1.050657481E-01 4.809319973E-01
 1.162579956E+03 2.463860016E+02 -1.302868462E+01 1.302007437E+00 -1.049354747E-01 4.795168936E-01
 1.162579956E+03 2.463860016E+02 -1.282868481E+01 1.301691651E+00 -1.048052087E-01 4.781018198E-01
 1.162579956E+03 2.463860016E+02 -1.262868500E+01 1.301375747E+00 -1.046749428E-01 4.766867161E-01
 1.162579956E+03 2.463860016E+02 -1.242868519E+01 1.301059842E+00 -1.045446768E-01 4.752716422E-01
 1.162579956E+03 2.463860016E+02 -1.222868443E+01 1.300743937E+00 -1.044144109E-01 4.738565385E-01
 1.162579956E+03 2.463860016E+02 -1.202868462E+01 1.300491452E+00 -1.043204665E-01 4.727688730E-01
 1.162579956E+03 2.463860016E+02 -1.182868481E+01 1.300266266E+00 -1.042421684E-01 4.718222320E-01
 1.162579956E+03 2.463860016E+02 -1.162868500E+01 1.300041199E+00 -1.041638702E-01 4.708755612E-01
 1.162579956E+03 2.463860016E+02 -1.142868519E+01 1.299784899E+00 -1.040509343E-01 4.699618220E-01
 1.162579956E+03 2.463860016E+02 -1.122868538E+01 1.299502969E+00 -1.039092019E-01 4.690754414E-01
 1.162579956E+03 2.463860016E+02 -1.102868462E+01 1.299220920E+00 -1.037674770E-01 4.681890905E-01
 1.162579956E+03 2.463860016E+02 -1.082868481E+01 1.298938990E+00 -1.036257520E-01 4.673027098E-01
 1.162579956E+03 2.463860016E+02 -1.062868404E+01 1.298656940E+00 -1.034840271E-01 4.664163291E-01
 1.162579956E+03 2.463860016E+02 -1.042868519E+01 1.298374891E+00 -1.033423021E-01 4.655299485E-01
 1.162579956E+03 2.463860016E+02 -1.022868538E+01 1.298107624E+00 -1.032131985E-01 4.646127522E-01
 1.162579956E+03 2.463860016E+02 -1.002868462E+01 1.297858000E+00 -1.030992419E-01 4.636585414E-01
 1.162579956E+03 2.463860016E+02 -9.828684807E+00 1.297608256E+00 -1.029852852E-01 4.627043307E-01
 1.162579956E+03 2.463860016E+02 -9.628684998E+00 1.297358632E+00 -1.028713211E-01 4.617501199E-01
 1.162579956E+03 2.463860016E+02 -9.428684235E+00 1.297108889E+00 -1.027573645E-01 4.607959092E-01
 1.162579956E+03 2.463860016E+02 -9.228685379E+00 1.296859264E+00 -1.026434079E-01 4.598417282E-01
 1.162579956E+03 2.463860016E+02 -9.028685570E+00 1.296609521E+00 -1.025294513E-01 4.588875175E-01
 1.162579956E+03 2.463860016E+02 -8.828684807E+00 1.296359897E+00 -1.024154946E-01 4.579333067E-01
 1.162579956E+03 2.463860016E+02 -8.628684998E+00 1.296110153E+00 -1.023015305E-01 4.569790959E-01
 1.162579956E+03 2.463860016E+02 -8.428684235E+00 1.295860410E+00 -1.021875739E-01 4.560248852E-01
 1.162579956E+03 2.463860016E+02 -8.228684425E+00 1.295575976E+00 -1.020992771E-01 4.549620152E-01
 1.162579956E+03 2.463860016E+02 -8.028685570E+00 1.295263886E+00 -1.020324603E-01 4.538021684E-01
 1.162579956E+03 2.463860016E+02 -7.828684330E+00 1.294951677E+00 -1.019656435E-01 4.526422918E-01
 1.162579956E+03 2.463860016E+02 -7.628684998E+00 1.294639587E+00 -1.018988267E-01 4.514824152E-01
 1.162579956E+03 2.463860016E+02 -7.428684711E+00 1.294327378E+00 -1.018320099E-01 4.503225684E-01
 1.162579956E+03 2.463860016E+02 -7.228684902E+00 1.294015288E+00 -1.017651930E-01 4.491626918E-01
 1.162579956E+03 2.463860016E+02 -7.028685093E+00 1.293703198E+00 -1.016983762E-01 4.480028152E-01
 1.162579956E+03 2.463860016E+02 -6.828684807E+00 1.293390989E+00 -1.016315520E-01 4.468429685E-01
 1.162579956E+03 2.463860016E+02 -6.628684521E+00 1.293078899E+00 -1.015647352E-01 4.456830919E-01
 1.162579956E+03 2.463860016E+02 -6.428685188E+00 1.292698264E+00 -1.014295816E-01 4.447173774E-01
 1.162579956E+03 2.463860016E+02 -6.228684902E+00 1.292315245E+00 -1.012921780E-01 4.437580407E-01
 1.162579956E+03 2.463860016E+02 -6.028684616E+00 1.291932344E+00 -1.011547744E-01 4.427987337E-01
 1.162579956E+03 2.463860016E+02 -5.828684807E+00 1.291517735E+00 -1.010267586E-01 4.417768419E-01
 1.162579956E+03 2.463860016E+02 -5.628684998E+00 1.291068554E+00 -1.009089649E-01 4.406868815E-01
 1.162579956E+03 2.463860016E+02 -5.428684711E+00 1.290619373E+00 -1.007911712E-01 4.395968914E-01
 1.162579956E+03 2.463860016E+02 -5.228684902E+00 1.290170193E+00 -1.006733775E-01 4.385069013E-01
 1.162579956E+03 2.463860016E+02 -5.028684616E+00 1.289721012E+00 -1.005555838E-01 4.374169111E-01
 1.162579956E+03 2.463860016E+02 -4.828684807E+00 1.289308786E+00 -1.004631147E-01 4.363938570E-01
 1.162579956E+03 2.463860016E+02 -4.628684998E+00 1.288947225E+00 -1.004051864E-01 4.354620278E-01