#++++++++++++++++++++++++++++++++++++++++++++++++++++++++++++++++++++++++++++++++++++++++++++++++++++++++++++++++++++++++++++++++++++++
#
#   HiLiftPW-2 Velocity DATA SUBMITTAL FORM Case 1 (Version 1), March 2013
#
#   CASE 1 is a required grid convergence study at high-Reynolds number conditions.
#   Config 2 (without Slat Tracks or Flap Track Fairings) should be used.
#   Two ALPHAs (7 and 16 deg) are required.
#   Four additional ALPHAs (18.5, 20, 21, and 22.4) are optional.
#   This case should be run FULLY TURBULENT (no forced transition).
#
#   This data file only asks for a subset of information to be reported: AoA=7, 18.5, and 21 on medium and fine grids
#
#       NOMENCLATURE:
#              ALPHA:	Angle of attack, deg.
#                 FT:   Fully Turbulent
#                 TR:   Transition specified or computed
#              X,Y,Z:   Cartesian coordinates, in mm
#             u/Uinf:   Velocity component in X-direction relative to freestream
#             v/Uinf:   Velocity component in Y-direction relative to freestream
#             w/Uinf:   Velocity component in Z-direction relative to freestream
#
#                XXX:	Participant ID (To be assigned by HiLiftPW-1 workshop committee)
#
#    FLOW CONDITIONS:
#                 Mach Number: 0.175
#             Reynolds Number: 15.1 million (based on MAC)
#             Freestream Temp: 114.0 K (205.2 R)
#  Freestream Static Pressure: 295000 Pa (42.7861 psi)
#
#              NOTES: 1. All numerical data fields can be free-formatted
#                     2. Please use at least 3 decimal places in the numerical values for velocity
#                     3. If optional data is NOT provided, please fill data fields with a numerical value of "-999" 
#                     4. Results are requested for both medium and fine grids
#                     5. There are no experimental velocity data for these high-Re conditions
#
#++++++++++++++++++++++++++++++++++++++++++++++++++++++++++++++++++++++++++++++++++++++++++++++++++++++++++++++++++++++++++++++++++++++

TITLE = "007.3"

VARIABLES = "X" "Y" "Z" "u/Uinf" "v/Uinf" "w/Uinf"

#-----------------------------------------------------------------------------------
# ALPHA 7, medium grid:
#-----------------------------------------------------------------------------------
ZONE T="007.3 case1 a7 Medium, p1, wB, line 1"
 1.162579956E+03 2.463860016E+02 -6.002868271E+01 5.434085727E-01 6.304382533E-02 9.547655582E-01
 1.162579956E+03 2.463860016E+02 -5.982868195E+01 5.786064863E-01 5.511488765E-02 1.008197665E+00
 1.162579956E+03 2.463860016E+02 -5.962868500E+01 6.079544425E-01 4.745633900E-02 1.048679829E+00
 1.162579956E+03 2.463860016E+02 -5.942868423E+01 6.325450540E-01 4.050990939E-02 1.078712702E+00
 1.162579956E+03 2.463860016E+02 -5.922868347E+01 6.520752311E-01 3.446459398E-02 1.097795129E+00
 1.162579956E+03 2.463860016E+02 -5.902868652E+01 6.682060957E-01 2.889721841E-02 1.108918190E+00
 1.162579956E+03 2.463860016E+02 -5.882868576E+01 6.812104583E-01 2.377121523E-02 1.113531351E+00
 1.162579956E+03 2.463860016E+02 -5.862868500E+01 6.922058463E-01 1.911908761E-02 1.113564610E+00
 1.162579956E+03 2.463860016E+02 -5.842868423E+01 7.007110119E-01 1.443303563E-02 1.110369563E+00
 1.162579956E+03 2.463860016E+02 -5.822868729E+01 7.071552873E-01 1.010252163E-02 1.105364203E+00
 1.162579956E+03 2.463860016E+02 -5.802868271E+01 7.125598192E-01 5.699305329E-03 1.099316597E+00
 1.162579956E+03 2.463860016E+02 -5.782868195E+01 7.175695896E-01 1.233566320E-03 1.092090249E+00
 1.162579956E+03 2.463860016E+02 -5.762868500E+01 7.220674157E-01 -3.367410740E-03 1.084278107E+00
 1.162579956E+03 2.463860016E+02 -5.742868423E+01 7.265198827E-01 -8.347799070E-03 1.075605750E+00
 1.162579956E+03 2.463860016E+02 -5.722868347E+01 7.307584882E-01 -1.355586667E-02 1.066735744E+00
 1.162579956E+03 2.463860016E+02 -5.702868652E+01 7.344449162E-01 -1.883549057E-02 1.058130145E+00
 1.162579956E+03 2.463860016E+02 -5.682868576E+01 7.378355861E-01 -2.430344187E-02 1.049569964E+00
 1.162579956E+03 2.463860016E+02 -5.662868500E+01 7.408288717E-01 -3.000410460E-02 1.040943146E+00
 1.162579956E+03 2.463860016E+02 -5.642868423E+01 7.438374758E-01 -3.588546440E-02 1.032225609E+00
 1.162579956E+03 2.463860016E+02 -5.622868729E+01 7.465789914E-01 -4.200205952E-02 1.023494244E+00
 1.162579956E+03 2.463860016E+02 -5.602868652E+01 7.492627501E-01 -4.843850434E-02 1.014721155E+00
 1.162579956E+03 2.463860016E+02 -5.582868195E+01 7.518308759E-01 -5.495109037E-02 1.006083608E+00
 1.162579956E+03 2.463860016E+02 -5.562868500E+01 7.541541457E-01 -6.152141467E-02 9.977378845E-01
 1.162579956E+03 2.463860016E+02 -5.542868423E+01 7.564195991E-01 -6.813459098E-02 9.895438552E-01
 1.162579956E+03 2.463860016E+02 -5.522868347E+01 7.587357163E-01 -7.481876016E-02 9.813199639E-01
 1.162579956E+03 2.463860016E+02 -5.502868271E+01 7.611173391E-01 -8.155363798E-02 9.732035398E-01
 1.162579956E+03 2.463860016E+02 -5.482868576E+01 7.634260058E-01 -8.852215856E-02 9.650936723E-01
 1.162579956E+03 2.463860016E+02 -5.462868500E+01 7.655198574E-01 -9.563460201E-02 9.570745230E-01
 1.162579956E+03 2.463860016E+02 -5.442868423E+01 7.675695419E-01 -1.029111445E-01 9.493232965E-01
 1.162579956E+03 2.463860016E+02 -5.422868729E+01 7.687829733E-01 -1.104210168E-01 9.403959513E-01
 1.162579956E+03 2.463860016E+02 -5.402868652E+01 7.678744197E-01 -1.183519289E-01 9.281856418E-01
 1.162579956E+03 2.463860016E+02 -5.382868576E+01 7.687638402E-01 -1.261062175E-01 9.184215665E-01
 1.162579956E+03 2.463860016E+02 -5.362868500E+01 7.716102600E-01 -1.325754672E-01 9.126188755E-01
 1.162579956E+03 2.463860016E+02 -5.342868423E+01 7.740937471E-01 -1.392768919E-01 9.062165022E-01
 1.162579956E+03 2.463860016E+02 -5.322868347E+01 7.759640813E-01 -1.455957443E-01 9.006842375E-01
 1.162579956E+03 2.463860016E+02 -5.302868271E+01 7.777765393E-01 -1.519656628E-01 8.950937986E-01
 1.162579956E+03 2.463860016E+02 -5.282868576E+01 7.796811461E-01 -1.584367156E-01 8.892598152E-01
 1.162579956E+03 2.463860016E+02 -5.262868500E+01 7.810438871E-01 -1.657453179E-01 8.822585344E-01
 1.162579956E+03 2.463860016E+02 -5.242868423E+01 7.818935513E-01 -1.736918241E-01 8.741294742E-01
 1.162579956E+03 2.463860016E+02 -5.222868729E+01 7.833977938E-01 -1.807311624E-01 8.675911427E-01
 1.162579956E+03 2.463860016E+02 -5.202868652E+01 7.836320400E-01 -1.885503232E-01 8.597400784E-01
 1.162579956E+03 2.463860016E+02 -5.182868576E+01 7.837853432E-01 -1.964108646E-01 8.519137502E-01
 1.162579956E+03 2.463860016E+02 -5.162868500E+01 7.836852670E-01 -2.040798217E-01 8.441036940E-01
 1.162579956E+03 2.463860016E+02 -5.142868423E+01 7.826180458E-01 -2.113857567E-01 8.365200162E-01
 1.162579956E+03 2.463860016E+02 -5.122868347E+01 7.815405130E-01 -2.186712772E-01 8.289641738E-01
 1.162579956E+03 2.463860016E+02 -5.102868271E+01 7.795525789E-01 -2.260029465E-01 8.209404349E-01
 1.162579956E+03 2.463860016E+02 -5.082868576E+01 7.763285041E-01 -2.331132144E-01 8.126280308E-01
 1.162579956E+03 2.463860016E+02 -5.062868500E+01 7.732125521E-01 -2.402646989E-01 8.043129444E-01
 1.162579956E+03 2.463860016E+02 -5.042868423E+01 7.728149295E-01 -2.442384511E-01 7.979225516E-01
 1.162579956E+03 2.463860016E+02 -5.022868347E+01 7.742080092E-01 -2.469028234E-01 7.914689779E-01
 1.162579956E+03 2.463860016E+02 -5.002868652E+01 7.749061584E-01 -2.497907579E-01 7.854335904E-01
 1.162579956E+03 2.463860016E+02 -4.982868576E+01 7.979778647E-01 -2.438069582E-01 7.729028463E-01
 1.162579956E+03 2.463860016E+02 -4.962868500E+01 8.140847087E-01 -2.356301248E-01 7.703129053E-01
 1.162579956E+03 2.463860016E+02 -4.942868805E+01 8.306729198E-01 -2.271270156E-01 7.677938342E-01
 1.162579956E+03 2.463860016E+02 -4.922868347E+01 8.472614288E-01 -2.186237425E-01 7.652747631E-01
 1.162579956E+03 2.463860016E+02 -4.902868271E+01 8.627203107E-01 -2.109114826E-01 7.625716925E-01
 1.162579956E+03 2.463860016E+02 -4.882868195E+01 8.773329854E-01 -2.038342208E-01 7.600985169E-01
 1.162579956E+03 2.463860016E+02 -4.862868500E+01 9.017011523E-01 -1.894164532E-01 7.613282204E-01
 1.162579956E+03 2.463860016E+02 -4.842868423E+01 9.272252321E-01 -1.742004901E-01 7.630348206E-01
 1.162579956E+03 2.463860016E+02 -4.822868347E+01 9.527527094E-01 -1.589819789E-01 7.647424936E-01
 1.162579956E+03 2.463860016E+02 -4.802868652E+01 9.781714082E-01 -1.438453496E-01 7.664151788E-01
 1.162579956E+03 2.463860016E+02 -4.782868576E+01 1.001058221E+00 -1.304125488E-01 7.669781446E-01
 1.162579956E+03 2.463860016E+02 -4.762868500E+01 1.023519278E+00 -1.174454316E-01 7.693872452E-01
 1.162579956E+03 2.463860016E+02 -4.742868805E+01 1.046057463E+00 -1.053420678E-01 7.732122540E-01
 1.162579956E+03 2.463860016E+02 -4.722868729E+01 1.068246126E+00 -9.351149201E-02 7.769410610E-01
 1.162579956E+03 2.463860016E+02 -4.702868271E+01 1.090435266E+00 -8.168069273E-02 7.806699872E-01
 1.162579956E+03 2.463860016E+02 -4.682868195E+01 1.113092542E+00 -6.948439032E-02 7.845277190E-01
 1.162579956E+03 2.463860016E+02 -4.662868500E+01 1.133109212E+00 -5.806306750E-02 7.868961692E-01
 1.162579956E+03 2.463860016E+02 -4.642868423E+01 1.143978238E+00 -5.280578136E-02 7.889044881E-01
 1.162579956E+03 2.463860016E+02 -4.622868347E+01 1.153149843E+00 -4.865568131E-02 7.907814980E-01
 1.162579956E+03 2.463860016E+02 -4.602868652E+01 1.162262321E+00 -4.455491528E-02 7.926383615E-01
 1.162579956E+03 2.463860016E+02 -4.582868576E+01 1.171468496E+00 -4.037603736E-02 7.945271134E-01
 1.162579956E+03 2.463860016E+02 -4.562868500E+01 1.182671666E+00 -3.491796181E-02 7.965364456E-01
 1.162579956E+03 2.463860016E+02 -4.542868423E+01 1.205661654E+00 -5.005732924E-02 7.986353636E-01
 1.162579956E+03 2.463860016E+02 -4.522868729E+01 1.210942745E+00 -5.060963705E-02 7.977687716E-01
 1.162579956E+03 2.463860016E+02 -4.502868652E+01 1.216223836E+00 -5.116194487E-02 7.969021201E-01
 1.162579956E+03 2.463860016E+02 -4.482868195E+01 1.221505165E+00 -5.171426013E-02 7.960354686E-01
 1.162579956E+03 2.463860016E+02 -4.462868500E+01 1.227046847E+00 -5.208026618E-02 7.953103781E-01
 1.162579956E+03 2.463860016E+02 -4.442868423E+01 1.234995842E+00 -5.083672330E-02 7.953081727E-01
 1.162579956E+03 2.463860016E+02 -4.422868347E+01 1.241832614E+00 -5.033366010E-02 7.949885130E-01
 1.162579956E+03 2.463860016E+02 -4.402868271E+01 1.247215390E+00 -5.081328750E-02 7.941770554E-01
 1.162579956E+03 2.463860016E+02 -4.382868576E+01 1.252495885E+00 -5.136603117E-02 7.933101058E-01
 1.162579956E+03 2.463860016E+02 -4.362868500E+01 1.257776380E+00 -5.191877857E-02 7.924431562E-01
 1.162579956E+03 2.463860016E+02 -4.342868423E+01 1.263056874E+00 -5.247152597E-02 7.915762067E-01
 1.162579956E+03 2.463860016E+02 -4.322868729E+01 1.266442776E+00 -5.358909070E-02 7.900225520E-01
 1.162579956E+03 2.463860016E+02 -4.302868652E+01 1.268746138E+00 -5.502936244E-02 7.880765796E-01
 1.162579956E+03 2.463860016E+02 -4.282868576E+01 1.271049500E+00 -5.646963045E-02 7.861306071E-01
 1.162579956E+03 2.463860016E+02 -4.262868500E+01 1.273352861E+00 -5.790992826E-02 7.841845751E-01
 1.162579956E+03 2.463860016E+02 -4.242868423E+01 1.275712252E+00 -5.935284495E-02 7.822864652E-01
 1.162579956E+03 2.463860016E+02 -4.222868347E+01 1.278418779E+00 -6.087472290E-02 7.804958224E-01
 1.162579956E+03 2.463860016E+02 -4.202868271E+01 1.281057119E+00 -6.237897649E-02 7.786903381E-01
 1.162579956E+03 2.463860016E+02 -4.182868576E+01 1.283399820E+00 -6.382110715E-02 7.767779827E-01
 1.162579956E+03 2.463860016E+02 -4.162868500E+01 1.285703063E+00 -6.526137143E-02 7.748320103E-01
 1.162579956E+03 2.463860016E+02 -4.142868423E+01 1.288006425E+00 -6.670164317E-02 7.728860378E-01
 1.162579956E+03 2.463860016E+02 -4.122868729E+01 1.290309787E+00 -6.814191490E-02 7.709400654E-01
 1.162579956E+03 2.463860016E+02 -4.102868652E+01 1.292268753E+00 -6.942704320E-02 7.687429190E-01
 1.162579956E+03 2.463860016E+02 -4.082868576E+01 1.293910503E+00 -7.056929916E-02 7.663145661E-01
 1.162579956E+03 2.463860016E+02 -4.062868500E+01 1.295552254E+00 -7.171155512E-02 7.638862133E-01
 1.162579956E+03 2.463860016E+02 -4.042868423E+01 1.297194004E+00 -7.285383344E-02 7.614578009E-01
 1.162579956E+03 2.463860016E+02 -4.022868347E+01 1.298855186E+00 -7.401363552E-02 7.590495944E-01
 1.162579956E+03 2.463860016E+02 -4.002868271E+01 1.300589323E+00 -7.522560656E-02 7.565700412E-01
 1.162579956E+03 2.463860016E+02 -3.982868576E+01 1.302329302E+00 -7.644113153E-02 7.540773153E-01
 1.162579956E+03 2.463860016E+02 -3.962868500E+01 1.303994060E+00 -7.760412246E-02 7.516728044E-01
 1.162579956E+03 2.463860016E+02 -3.942868423E+01 1.305635810E+00 -7.874638587E-02 7.492443919E-01
 1.162579956E+03 2.463860016E+02 -3.922868347E+01 1.307277560E+00 -7.988864183E-02 7.468160391E-01
 1.162579956E+03 2.463860016E+02 -3.902868652E+01 1.308919311E+00 -8.103089780E-02 7.443876863E-01
 1.162579956E+03 2.463860016E+02 -3.882868576E+01 1.310328722E+00 -8.203998208E-02 7.419111133E-01
 1.162579956E+03 2.463860016E+02 -3.862868500E+01 1.311396718E+00 -8.285325021E-02 7.393636703E-01
 1.162579956E+03 2.463860016E+02 -3.842868805E+01 1.312464714E+00 -8.366651833E-02 7.368162274E-01
 1.162579956E+03 2.463860016E+02 -3.822868347E+01 1.313532591E+00 -8.447980136E-02 7.342687249E-01
 1.162579956E+03 2.463860016E+02 -3.802868271E+01 1.314605355E+00 -8.530414104E-02 7.317253351E-01
 1.162579956E+03 2.463860016E+02 -3.782868195E+01 1.315672874E+00 -8.617378026E-02 7.290734053E-01
 1.162579956E+03 2.463860016E+02 -3.762868500E+01 1.316729188E+00 -8.705659211E-02 7.263398767E-01
 1.162579956E+03 2.463860016E+02 -3.742868423E+01 1.317806840E+00 -8.789268136E-02 7.238007784E-01
 1.162579956E+03 2.463860016E+02 -3.722868347E+01 1.318874836E+00 -8.870600909E-02 7.212533951E-01
 1.162579956E+03 2.463860016E+02 -3.702868652E+01 1.319942832E+00 -8.951932937E-02 7.187059522E-01
 1.162579956E+03 2.463860016E+02 -3.682868576E+01 1.321010828E+00 -9.033265710E-02 7.161585093E-01
 1.162579956E+03 2.463860016E+02 -3.662868500E+01 1.321978569E+00 -9.107428789E-02 7.136196494E-01
 1.162579956E+03 2.463860016E+02 -3.642868805E+01 1.322695494E+00 -9.163632989E-02 7.111021280E-01
 1.162579956E+03 2.463860016E+02 -3.622868729E+01 1.323412418E+00 -9.219836444E-02 7.085846663E-01
 1.162579956E+03 2.463860016E+02 -3.602868271E+01 1.324129343E+00 -9.276041389E-02 7.060670853E-01
 1.162579956E+03 2.463860016E+02 -3.582868195E+01 1.324847579E+00 -9.332617372E-02 7.035491467E-01
 1.162579956E+03 2.463860016E+02 -3.562868500E+01 1.325552940E+00 -9.390289336E-02 7.009407878E-01
 1.162579956E+03 2.463860016E+02 -3.542868423E+01 1.326228142E+00 -9.447005391E-02 6.981853247E-01
 1.162579956E+03 2.463860016E+02 -3.522868347E+01 1.326949954E+00 -9.504692256E-02 6.956660748E-01
 1.162579956E+03 2.463860016E+02 -3.502868652E+01 1.327666879E+00 -9.560892731E-02 6.931485534E-01
 1.162579956E+03 2.463860016E+02 -3.482868576E+01 1.328383803E+00 -9.617093205E-02 6.906310320E-01
 1.162579956E+03 2.463860016E+02 -3.462868500E+01 1.329100728E+00 -9.673293680E-02 6.881135702E-01
 1.162579956E+03 2.463860016E+02 -3.442868423E+01 1.329758525E+00 -9.725510329E-02 6.857208610E-01
 1.162579956E+03 2.463860016E+02 -3.422868729E+01 1.330118775E+00 -9.757682681E-02 6.839562058E-01
 1.162579956E+03 2.463860016E+02 -3.402868652E+01 1.330479145E+00 -9.789855033E-02 6.821915507E-01
 1.162579956E+03 2.463860016E+02 -3.382868195E+01 1.330839515E+00 -9.822028130E-02 6.804268956E-01
 1.162579956E+03 2.463860016E+02 -3.362868500E+01 1.331206918E+00 -9.854575247E-02 6.786704659E-01
 1.162579956E+03 2.463860016E+02 -3.342868423E+01 1.331720948E+00 -9.895857424E-02 6.769452691E-01
 1.162579956E+03 2.463860016E+02 -3.322868347E+01 1.332351327E+00 -9.946694970E-02 6.748369336E-01
 1.162579956E+03 2.463860016E+02 -3.302868271E+01 1.332814693E+00 -9.984371066E-02 6.731928587E-01
 1.162579956E+03 2.463860016E+02 -3.282868576E+01 1.333175182E+00 -1.001655236E-01 6.714281440E-01
 1.162579956E+03 2.463860016E+02 -3.262868500E+01 1.333535671E+00 -1.004873365E-01 6.696634889E-01
 1.162579956E+03 2.463860016E+02 -3.242868423E+01 1.333896160E+00 -1.008091494E-01 6.678987741E-01
 1.162579956E+03 2.463860016E+02 -3.222868729E+01 1.334928632E+00 -1.023459285E-01 6.569981575E-01
 1.162579956E+03 2.463860016E+02 -3.202868652E+01 1.335424542E+00 -1.027260572E-01 6.551491022E-01
 1.162579956E+03 2.463860016E+02 -3.182868576E+01 1.335920334E+00 -1.031061858E-01 6.533001065E-01
 1.162579956E+03 2.463860016E+02 -3.162868309E+01 1.336416245E+00 -1.034863219E-01 6.514509916E-01
 1.162579956E+03 2.463860016E+02 -3.142868423E+01 1.336912155E+00 -1.038664505E-01 6.496019363E-01
 1.162579956E+03 2.463860016E+02 -3.122868538E+01 1.337393522E+00 -1.042421013E-01 6.477457285E-01
 1.162579956E+03 2.463860016E+02 -3.102868462E+01 1.337747693E+00 -1.045783758E-01 6.458258629E-01
 1.162579956E+03 2.463860016E+02 -3.082868385E+01 1.338101506E+00 -1.049142629E-01 6.439069510E-01
 1.162579956E+03 2.463860016E+02 -3.062868500E+01 1.338441730E+00 -1.052347198E-01 6.420242786E-01
 1.162579956E+03 2.463860016E+02 -3.042868614E+01 1.338781953E+00 -1.055551767E-01 6.401416659E-01
 1.162579956E+03 2.463860016E+02 -3.022868538E+01 1.339122057E+00 -1.058756411E-01 6.382589936E-01
 1.162579956E+03 2.463860016E+02 -3.002868462E+01 1.339462280E+00 -1.061960980E-01 6.363763809E-01
 1.162579956E+03 2.463860016E+02 -2.982868385E+01 1.339802504E+00 -1.065165550E-01 6.344937086E-01
 1.162579956E+03 2.463860016E+02 -2.962868500E+01 1.340142727E+00 -1.068370119E-01 6.326110959E-01
 1.162579956E+03 2.463860016E+02 -2.942868423E+01 1.340482950E+00 -1.071574762E-01 6.307284236E-01
 1.162579956E+03 2.463860016E+02 -2.922868538E+01 1.340823174E+00 -1.074779332E-01 6.288458109E-01
 1.162579956E+03 2.463860016E+02 -2.902868652E+01 1.341175079E+00 -1.078116968E-01 6.269318461E-01
 1.162579956E+03 2.463860016E+02 -2.882868385E+01 1.341529250E+00 -1.081480011E-01 6.250119805E-01
 1.162579956E+03 2.463860016E+02 -2.862868500E+01 1.341991544E+00 -1.085177511E-01 6.231460571E-01
 1.162579956E+03 2.463860016E+02 -2.842868423E+01 1.342487335E+00 -1.088979021E-01 6.212969422E-01
 1.162579956E+03 2.463860016E+02 -2.822868538E+01 1.342983246E+00 -1.092780530E-01 6.194478273E-01
 1.162579956E+03 2.463860016E+02 -2.802868652E+01 1.343479156E+00 -1.096582040E-01 6.175987124E-01
 1.162579956E+03 2.463860016E+02 -2.782868385E+01 1.343975067E+00 -1.100383624E-01 6.157495975E-01
 1.162579956E+03 2.463860016E+02 -2.762868500E+01 1.344208121E+00 -1.102270186E-01 6.140608788E-01
 1.162579956E+03 2.463860016E+02 -2.742868423E+01 1.344381332E+00 -1.103721336E-01 6.124086380E-01
 1.162579956E+03 2.463860016E+02 -2.722868538E+01 1.344554663E+00 -1.105172411E-01 6.107563972E-01
 1.162579956E+03 2.463860016E+02 -2.702868462E+01 1.344727874E+00 -1.106623560E-01 6.091041565E-01
 1.162579956E+03 2.463860016E+02 -2.682868576E+01 1.344901085E+00 -1.108074635E-01 6.074519157E-01
 1.162579956E+03 2.463860016E+02 -2.662868500E+01 1.345175862E+00 -1.110014766E-01 6.057415009E-01
 1.162579956E+03 2.463860016E+02 -2.642868423E+01 1.345466256E+00 -1.112030074E-01 6.040222049E-01
 1.162579956E+03 2.463860016E+02 -2.622868538E+01 1.345745683E+00 -1.114090979E-01 6.023125052E-01
 1.162579956E+03 2.463860016E+02 -2.602868462E+01 1.346022248E+00 -1.116164029E-01 6.006053686E-01
 1.162579956E+03 2.463860016E+02 -2.582868576E+01 1.346298695E+00 -1.118237078E-01 5.988982320E-01
 1.162579956E+03 2.463860016E+02 -2.562868500E+01 1.346575260E+00 -1.120310202E-01 5.971910954E-01
 1.162579956E+03 2.463860016E+02 -2.542868423E+01 1.346851826E+00 -1.122383252E-01 5.954840183E-01
 1.162579956E+03 2.463860016E+02 -2.522868538E+01 1.347128391E+00 -1.124456301E-01 5.937768817E-01
 1.162579956E+03 2.463860016E+02 -2.502868462E+01 1.347404838E+00 -1.126529351E-01 5.920697451E-01
 1.162579956E+03 2.463860016E+02 -2.482868576E+01 1.347681403E+00 -1.128602400E-01 5.903626084E-01
 1.162579956E+03 2.463860016E+02 -2.462868309E+01 1.347966313E+00 -1.130640656E-01 5.886480808E-01
 1.162579956E+03 2.463860016E+02 -2.442868423E+01 1.348256588E+00 -1.132656038E-01 5.869287848E-01
 1.162579956E+03 2.463860016E+02 -2.422868538E+01 1.348485231E+00 -1.134373844E-01 5.852448344E-01
 1.162579956E+03 2.463860016E+02 -2.402868462E+01 1.348658442E+00 -1.135825068E-01 5.835926533E-01
 1.162579956E+03 2.463860016E+02 -2.382868576E+01 1.348831654E+00 -1.137276292E-01 5.819404125E-01
 1.162579956E+03 2.463860016E+02 -2.362868500E+01 1.349004865E+00 -1.138727516E-01 5.802881718E-01
 1.162579956E+03 2.463860016E+02 -2.342868423E+01 1.349178076E+00 -1.140178740E-01 5.786359310E-01
 1.162579956E+03 2.463860016E+02 -2.322868538E+01 1.349092126E+00 -1.140389144E-01 5.769580603E-01
 1.162579956E+03 2.463860016E+02 -2.302868462E+01 1.348817825E+00 -1.139698923E-01 5.752615929E-01
 1.162579956E+03 2.463860016E+02 -2.282868576E+01 1.348543644E+00 -1.139008701E-01 5.735651255E-01
 1.162579956E+03 2.463860016E+02 -2.262868500E+01 1.348269463E+00 -1.138318554E-01 5.718686581E-01
 1.162579956E+03 2.463860016E+02 -2.242868423E+01 1.347995162E+00 -1.137628332E-01 5.701721311E-01
 1.162579956E+03 2.463860016E+02 -2.222868347E+01 1.347681522E+00 -1.136617959E-01 5.684264898E-01
 1.162579956E+03 2.463860016E+02 -2.202868462E+01 1.347344756E+00 -1.135420725E-01 5.666520596E-01
 1.162579956E+03 2.463860016E+02 -2.182868576E+01 1.346986175E+00 -1.134136766E-01 5.648769140E-01
 1.162579956E+03 2.463860016E+02 -2.162868500E+01 1.346610069E+00 -1.132782847E-01 5.631011128E-01
 1.162579956E+03 2.463860016E+02 -2.142868614E+01 1.346233845E+00 -1.131429002E-01 5.613252521E-01
 1.162579956E+03 2.463860016E+02 -2.122868347E+01 1.345857739E+00 -1.130075082E-01 5.595494509E-01
 1.162579956E+03 2.463860016E+02 -2.102868462E+01 1.345481515E+00 -1.128721163E-01 5.577735901E-01
 1.162579956E+03 2.463860016E+02 -2.082868385E+01 1.345105410E+00 -1.127367318E-01 5.559977889E-01
 1.162579956E+03 2.463860016E+02 -2.062868500E+01 1.344729185E+00 -1.126013398E-01 5.542219877E-01
 1.162579956E+03 2.463860016E+02 -2.042868614E+01 1.344352961E+00 -1.124659479E-01 5.524461865E-01
 1.162579956E+03 2.463860016E+02 -2.022868347E+01 1.343991399E+00 -1.123363599E-01 5.506708622E-01
 1.162579956E+03 2.463860016E+02 -2.002868462E+01 1.343654752E+00 -1.122166663E-01 5.488964915E-01
 1.162579956E+03 2.463860016E+02 -1.982868385E+01 1.343336344E+00 -1.121117771E-01 5.471448302E-01
 1.162579956E+03 2.463860016E+02 -1.962868500E+01 1.343062162E+00 -1.120427847E-01 5.454483628E-01
 1.162579956E+03 2.463860016E+02 -1.942868614E+01 1.342788100E+00 -1.119737923E-01 5.437518954E-01
 1.162579956E+03 2.463860016E+02 -1.922868538E+01 1.342513919E+00 -1.119047925E-01 5.420554280E-01
 1.162579956E+03 2.463860016E+02 -1.902868462E+01 1.342239738E+00 -1.118358001E-01 5.403589010E-01
 1.162579956E+03 2.463860016E+02 -1.882868385E+01 1.341907382E+00 -1.117450148E-01 5.387262702E-01
 1.162579956E+03 2.463860016E+02 -1.862868500E+01 1.341464043E+00 -1.116127074E-01 5.372153521E-01
 1.162579956E+03 2.463860016E+02 -1.842868423E+01 1.341020823E+00 -1.114804000E-01 5.357044339E-01
 1.162579956E+03 2.463860016E+02 -1.822868538E+01 1.340577483E+00 -1.113480926E-01 5.341935158E-01
 1.162579956E+03 2.463860016E+02 -1.802868462E+01 1.340134144E+00 -1.112157851E-01 5.326825976E-01
 1.162579956E+03 2.463860016E+02 -1.782868385E+01 1.339648485E+00 -1.110572368E-01 5.311418176E-01
 1.162579956E+03 2.463860016E+02 -1.762868500E+01 1.339098215E+00 -1.108586937E-01 5.295554996E-01
 1.162579956E+03 2.463860016E+02 -1.742868423E+01 1.338541031E+00 -1.106532216E-01 5.279691815E-01
 1.162579956E+03 2.463860016E+02 -1.722868538E+01 1.337968946E+00 -1.104329303E-01 5.263827443E-01
 1.162579956E+03 2.463860016E+02 -1.702868652E+01 1.337396860E+00 -1.102126390E-01 5.247963071E-01
 1.162579956E+03 2.463860016E+02 -1.682868385E+01 1.336824894E+00 -1.099923402E-01 5.232098103E-01
 1.162579956E+03 2.463860016E+02 -1.662868500E+01 1.336252809E+00 -1.097720489E-01 5.216233730E-01
 1.162579956E+03 2.463860016E+02 -1.642868423E+01 1.335680723E+00 -1.095517576E-01 5.200369358E-01
 1.162579956E+03 2.463860016E+02 -1.622868538E+01 1.335108757E+00 -1.093314663E-01 5.184504986E-01
 1.162579956E+03 2.463860016E+02 -1.602868462E+01 1.334536672E+00 -1.091111675E-01 5.168640614E-01
 1.162579956E+03 2.463860016E+02 -1.582868385E+01 1.333967566E+00 -1.088937968E-01 5.152776241E-01
 1.162579956E+03 2.463860016E+02 -1.562868404E+01 1.333417177E+00 -1.086952165E-01 5.136913657E-01
 1.162579956E+03 2.463860016E+02 -1.542868423E+01 1.332872987E+00 -1.085003987E-01 5.121093392E-01
 1.162579956E+03 2.463860016E+02 -1.522868538E+01 1.332429647E+00 -1.083680615E-01 5.105984211E-01
 1.162579956E+03 2.463860016E+02 -1.502868462E+01 1.331986308E+00 -1.082357168E-01 5.090874434E-01
 1.162579956E+03 2.463860016E+02 -1.482868481E+01 1.331542969E+00 -1.081033796E-01 5.075765252E-01
 1.162579956E+03 2.463860016E+02 -1.462868500E+01 1.331099629E+00 -1.079710349E-01 5.060656071E-01
 1.162579956E+03 2.463860016E+02 -1.442868423E+01 1.330657363E+00 -1.078379601E-01 5.045811534E-01
 1.162579956E+03 2.463860016E+02 -1.422868443E+01 1.330224156E+00 -1.076988876E-01 5.033131838E-01
 1.162579956E+03 2.463860016E+02 -1.402868557E+01 1.329790831E+00 -1.075598076E-01 5.020452738E-01
 1.162579956E+03 2.463860016E+02 -1.382868481E+01 1.329357624E+00 -1.074207276E-01 5.007773638E-01
 1.162579956E+03 2.463860016E+02 -1.362868500E+01 1.328924417E+00 -1.072816551E-01 4.995094240E-01
 1.162579956E+03 2.463860016E+02 -1.342868519E+01 1.328472376E+00 -1.071325690E-01 4.982321262E-01
 1.162579956E+03 2.463860016E+02 -1.322868443E+01 1.327922106E+00 -1.069313213E-01 4.969059825E-01
 1.162579956E+03 2.463860016E+02 -1.302868462E+01 1.327372313E+00 -1.067289561E-01 4.955807626E-01
 1.162579956E+03 2.463860016E+02 -1.282868481E+01 1.326826572E+00 -1.065143049E-01 4.942655861E-01
 1.162579956E+03 2.463860016E+02 -1.262868500E+01 1.326280951E+00 -1.062996462E-01 4.929504395E-01
 1.162579956E+03 2.463860016E+02 -1.242868519E+01 1.325735211E+00 -1.060849875E-01 4.916352928E-01
 1.162579956E+03 2.463860016E+02 -1.222868443E+01 1.325189471E+00 -1.058703288E-01 4.903201461E-01
 1.162579956E+03 2.463860016E+02 -1.202868462E+01 1.324643850E+00 -1.056556702E-01 4.890049696E-01
 1.162579956E+03 2.463860016E+02 -1.182868481E+01 1.324098110E+00 -1.054410189E-01 4.876898229E-01
 1.162579956E+03 2.463860016E+02 -1.162868500E+01 1.323552370E+00 -1.052263603E-01 4.863746762E-01
 1.162579956E+03 2.463860016E+02 -1.142868519E+01 1.323006749E+00 -1.050117016E-01 4.850595295E-01
 1.162579956E+03 2.463860016E+02 -1.122868538E+01 1.322456956E+00 -1.048091203E-01 4.837344885E-01
 1.162579956E+03 2.463860016E+02 -1.102868462E+01 1.321906686E+00 -1.046078950E-01 4.824083149E-01
 1.162579956E+03 2.463860016E+02 -1.082868481E+01 1.321452618E+00 -1.044577360E-01 4.811299741E-01
 1.162579956E+03 2.463860016E+02 -1.062868404E+01 1.321019411E+00 -1.043186784E-01 4.798620343E-01
 1.162579956E+03 2.463860016E+02 -1.042868519E+01 1.320586085E+00 -1.041796282E-01 4.785940945E-01
 1.162579956E+03 2.463860016E+02 -1.022868538E+01 1.320152879E+00 -1.040405706E-01 4.773261249E-01
 1.162579956E+03 2.463860016E+02 -1.002868462E+01 1.319719672E+00 -1.039015129E-01 4.760581851E-01
 1.162579956E+03 2.463860016E+02 -9.828684807E+00 1.319406152E+00 -1.038062200E-01 4.749929011E-01
 1.162579956E+03 2.463860016E+02 -9.628684998E+00 1.319110155E+00 -1.037172601E-01 4.739569724E-01
 1.162579956E+03 2.463860016E+02 -9.428684235E+00 1.318814039E+00 -1.036283076E-01 4.729210138E-01
 1.162579956E+03 2.463860016E+02 -9.228685379E+00 1.318517923E+00 -1.035393476E-01 4.718850851E-01
 1.162579956E+03 2.463860016E+02 -9.028685570E+00 1.318221927E+00 -1.034503877E-01 4.708491266E-01
 1.162579956E+03 2.463860016E+02 -8.828684807E+00 1.317835450E+00 -1.033137515E-01 4.697645307E-01
 1.162579956E+03 2.463860016E+02 -8.628684998E+00 1.317441821E+00 -1.031732932E-01 4.686760008E-01
 1.162579956E+03 2.463860016E+02 -8.428684235E+00 1.317057490E+00 -1.030296236E-01 4.676011205E-01
 1.162579956E+03 2.463860016E+02 -8.228684425E+00 1.316674829E+00 -1.028853729E-01 4.665286541E-01
 1.162579956E+03 2.463860016E+02 -8.028685570E+00 1.316292167E+00 -1.027411297E-01 4.654562175E-01
 1.162579956E+03 2.463860016E+02 -7.828684330E+00 1.315909505E+00 -1.025968865E-01 4.643837810E-01
 1.162579956E+03 2.463860016E+02 -7.628684998E+00 1.315526843E+00 -1.024526432E-01 4.633113444E-01
 1.162579956E+03 2.463860016E+02 -7.428684711E+00 1.315144181E+00 -1.023084000E-01 4.622389078E-01
 1.162579956E+03 2.463860016E+02 -7.228684902E+00 1.314761519E+00 -1.021641493E-01 4.611664712E-01
 1.162579956E+03 2.463860016E+02 -7.028685093E+00 1.314378858E+00 -1.020199060E-01 4.600940347E-01
 1.162579956E+03 2.463860016E+02 -6.828684807E+00 1.313988924E+00 -1.018781662E-01 4.590109289E-01
 1.162579956E+03 2.463860016E+02 -6.628684521E+00 1.313595295E+00 -1.017377004E-01 4.579224288E-01
 1.162579956E+03 2.463860016E+02 -6.428685188E+00 1.313258767E+00 -1.016274169E-01 4.568647444E-01
 1.162579956E+03 2.463860016E+02 -6.228684902E+00 1.312962770E+00 -1.015384570E-01 4.558288157E-01
 1.162579956E+03 2.463860016E+02 -6.028684616E+00 1.312666655E+00 -1.014494896E-01 4.547929168E-01
 1.162579956E+03 2.463860016E+02 -5.828684807E+00 1.312370658E+00 -1.013605222E-01 4.537569880E-01
 1.162579956E+03 2.463860016E+02 -5.628684998E+00 1.312074542E+00 -1.012715623E-01 4.527210593E-01
 1.162579956E+03 2.463860016E+02 -5.428684711E+00 1.311896205E+00 -1.012270451E-01 4.519607425E-01
 1.162579956E+03 2.463860016E+02 -5.228684902E+00 1.311784506E+00 -1.012077108E-01 4.513565898E-01
 1.162579956E+03 2.463860016E+02 -5.028684616E+00 1.311672688E+00 -1.011883765E-01 4.507524371E-01