#++++++++++++++++++++++++++++++++++++++++++++++++++++++++++++++++++++++++++++++++++++++++++++++++++++++++++++++++++++++++++++++++++++++
#
#   HiLiftPW-2 Velocity DATA SUBMITTAL FORM Case 2a (Version 1), March 2013
#
#   CASE 2 is a required Reynolds number study at 8 different angles-of-attack each.
#   Config 4 (including Slat Tracks and Flap Track Fairings) should be used.
#   A comparable *Medium* mesh density from the Grid Convergence Study should be used.
#   The required parts of this case (Case 2a and 2b) should be run FULLY TURBULENT (no forced transition).
#   An optional part of this case (Case 2c) can be run with transition specified or predicted.
#
#   This data file only asks for a subset of information to be reported: AoA=7, 18.5, and 21 only.
#
#       NOMENCLATURE:
#              ALPHA:	Angle of attack, deg.
#                 FT:   Fully Turbulent
#                 TR:   Transition specified or computed
#              X,Y,Z:   Cartesian coordinates, in mm
#             u/Uinf:   Velocity component in X-direction relative to freestream
#             v/Uinf:   Velocity component in Y-direction relative to freestream
#             w/Uinf:   Velocity component in Z-direction relative to freestream
#
#                XXX:	Participant ID (To be assigned by HiLiftPW-1 workshop committee)
#
#    FLOW CONDITIONS CASE 2a:
#                 Mach Number: 0.175
#             Reynolds Number: 1.35 million (based on MAC)
#             Freestream Temp: 298.6 K (537.48 R)
#  Freestream Static Pressure: 100700 Pa (14.6053 psi)
#
#              NOTES: 1. All numerical data fields can be free-formatted
#                     2. Please use at least 3 decimal places in the numerical values for velocity
#                     3. If optional data is NOT provided, please fill data fields with a numerical value of "-999" 
#                     4. Results are requested for both medium and fine grids
#
#++++++++++++++++++++++++++++++++++++++++++++++++++++++++++++++++++++++++++++++++++++++++++++++++++++++++++++++++++++++++++++++++++++++

TITLE = "XXX"

VARIABLES = "X" "Y" "Z" "u/Uinf" "v/Uinf" "w/Uinf"

#-----------------------------------------------------------------------------------
# ALPHA 7:
#-----------------------------------------------------------------------------------
ZONE T="010 case2a a7 medium, p1, wB, line1"
# extract along Z at X=1162.58, Y=246.386, from wing upper surface to at least 59mm high above surface
  1162.58   246.39   -60.5487   0.0000  0.0000   0.0000
  1162.58   246.39   -60.5478   0.0021  0.0010   0.0031
  1162.58   246.39   -60.5468   0.0045  0.0021   0.0064
  1162.58   246.39   -60.5456   0.0071  0.0034   0.0102
  1162.58   246.39   -60.5443   0.0102  0.0048   0.0146
  1162.58   246.39   -60.5427   0.0137  0.0065   0.0197
  1162.58   246.39   -60.5409   0.0178  0.0085   0.0254
  1162.58   246.39   -60.5389   0.0225  0.0108   0.0321
  1162.58   246.39   -60.5365   0.0279  0.0134   0.0397
  1162.58   246.39   -60.5338   0.0341  0.0165   0.0485
  1162.58   246.39   -60.5307   0.0412  0.0200   0.0585
  1162.58   246.39   -60.5271   0.0495  0.0242   0.0700
  1162.58   246.39   -60.5230   0.0590  0.0290   0.0832
  1162.58   246.39   -60.5183   0.0699  0.0346   0.0982
  1162.58   246.39   -60.5128   0.0825  0.0412   0.1154
  1162.58   246.39   -60.5065   0.0970  0.0488   0.1351
  1162.58   246.39   -60.4993   0.1136  0.0577   0.1574
  1162.58   246.39   -60.4910   0.1325  0.0680   0.1825
  1162.58   246.39   -60.4815   0.1538  0.0796   0.2106
  1162.58   246.39   -60.4706   0.1774  0.0927   0.2414
  1162.58   246.39   -60.4579   0.2027  0.1069   0.2742
  1162.58   246.39   -60.4434   0.2288  0.1215   0.3079
  1162.58   246.39   -60.4268   0.2541  0.1355   0.3405
  1162.58   246.39   -60.4076   0.2769  0.1475   0.3700
  1162.58   246.39   -60.3856   0.2961  0.1569   0.3952
  1162.58   246.39   -60.3602   0.3120  0.1638   0.4164
  1162.58   246.39   -60.3310   0.3253  0.1688   0.4345
  1162.58   246.39   -60.2975   0.3372  0.1725   0.4509
  1162.58   246.39   -60.2589   0.3483  0.1751   0.4664
  1162.58   246.39   -60.2146   0.3590  0.1769   0.4818
  1162.58   246.39   -60.1636   0.3697  0.1780   0.4973
  1162.58   246.39   -60.1049   0.3806  0.1784   0.5133
  1162.58   246.39   -60.0375   0.3919  0.1780   0.5301
  1162.58   246.39   -59.9599   0.4038  0.1770   0.5479
  1162.58   246.39   -59.8707   0.4164  0.1751   0.5668
  1162.58   246.39   -59.7680   0.4299  0.1723   0.5872
  1162.58   246.39   -59.6500   0.4444  0.1684   0.6090
  1162.58   246.39   -59.6072   0.4494  0.1669   0.6164
  1162.58   246.39   -59.5154   0.4602  0.1633   0.6320
  1162.58   246.39   -59.3612   0.4774  0.1568   0.6563
  1162.58   246.39   -59.1839   0.4960  0.1489   0.6820
  1162.58   246.39   -58.9798   0.5162  0.1392   0.7087
  1162.58   246.39   -58.8230   0.5307  0.1314   0.7270
  1162.58   246.39   -58.7535   0.5381  0.1280   0.7375
  1162.58   246.39   -58.5126   0.5610  0.1159   0.7696
  1162.58   246.39   -58.2355   0.5840  0.1016   0.8000
  1162.58   246.39   -57.9165   0.6063  0.0849   0.8265
  1162.58   246.39   -57.5493   0.6274  0.0658   0.8469
  1162.58   246.39   -57.4992   0.6297  0.0632   0.8485
  1162.58   246.39   -57.1395   0.6478  0.0443   0.8615
  1162.58   246.39   -56.6987   0.6659  0.0221   0.8696
  1162.58   246.39   -56.6724   0.6670  0.0207   0.8703
  1162.58   246.39   -56.1796   0.6827 -0.0026   0.8745
  1162.58   246.39   -55.6122   0.6969 -0.0279   0.8703
  1162.58   246.39   -54.9584   0.7109 -0.0548   0.8586
  1162.58   246.39   -54.2561   0.7251 -0.0814   0.8424
  1162.58   246.39   -54.2078   0.7260 -0.0831   0.8415
  1162.58   246.39   -54.1031   0.7280 -0.0867   0.8388
  1162.58   246.39   -53.4266   0.7392 -0.1086   0.8207
  1162.58   246.39   -53.0454   0.7463 -0.1195   0.8114
  1162.58   246.39   -52.6613   0.7538 -0.1282   0.8016
  1162.58   246.39   -51.8137   0.7718 -0.1514   0.7796
  1162.58   246.39   -50.4943   0.7945 -0.1689   0.7392
  1162.58   246.39   -50.2903   0.7978 -0.1716   0.7330
  1162.58   246.39   -49.9528   0.8021 -0.1744   0.7233
  1162.58   246.39   -49.5632   0.8211 -0.1601   0.7119
  1162.58   246.39   -49.1487   0.8418 -0.1455   0.6999
  1162.58   246.39   -49.0660   0.8467 -0.1415   0.6975
  1162.58   246.39   -48.8802   0.8590 -0.1320   0.6926
  1162.58   246.39   -48.6448   0.8978 -0.1099   0.6984
  1162.58   246.39   -48.0624   0.9555 -0.0810   0.7008
  1162.58   246.39   -47.9946   0.9618 -0.0780   0.7011
  1162.58   246.39   -47.5007   1.0489 -0.0548   0.7347
  1162.58   246.39   -47.3590   1.0685 -0.0499   0.7418
  1162.58   246.39   -46.9878   1.1197 -0.0375   0.7601
  1162.58   246.39   -46.6808   1.1428 -0.0384   0.7689
  1162.58   246.39   -46.6091   1.1477 -0.0387   0.7706
  1162.58   246.39   -46.2472   1.1643 -0.0408   0.7737
  1162.58   246.39   -45.7818   1.1890 -0.0423   0.7781
  1162.58   246.39   -45.1688   1.2086 -0.0457   0.7778
  1162.58   246.39   -44.8732   1.2143 -0.0478   0.7760
  1162.58   246.39   -44.3300   1.2228 -0.0522   0.7707
  1162.58   246.39   -43.9184   1.2270 -0.0563   0.7652
  1162.58   246.39   -43.2052   1.2350 -0.0618   0.7576
  1162.58   246.39   -43.1841   1.2352 -0.0619   0.7574
  1162.58   246.39   -43.1542   1.2355 -0.0621   0.7571
  1162.58   246.39   -42.4815   1.2415 -0.0660   0.7503
  1162.58   246.39   -41.5288   1.2500 -0.0729   0.7369
  1162.58   246.39   -39.8057   1.2637 -0.0810   0.7169
  1162.58   246.39   -39.6351   1.2652 -0.0818   0.7150
  1162.58   246.39   -39.4814   1.2664 -0.0826   0.7136
  1162.58   246.39   -39.1604   1.2690 -0.0841   0.7103
  1162.58   246.39   -38.7238   1.2717 -0.0857   0.7056
  1162.58   246.39   -38.3784   1.2738 -0.0869   0.7019
  1162.58   246.39   -37.3328   1.2809 -0.0912   0.6898
  1162.58   246.39   -36.6082   1.2842 -0.0931   0.6808
  1162.58   246.39   -36.4102   1.2852 -0.0937   0.6786
  1162.58   246.39   -35.0672   1.2911 -0.0972   0.6643
  1162.58   246.39   -34.5872   1.2924 -0.0981   0.6590
  1162.58   246.39   -34.2510   1.2936 -0.0987   0.6557
  1162.58   246.39   -33.5704   1.2954 -0.0999   0.6482
  1162.58   246.39   -32.2445   1.2993 -0.1022   0.6337
  1162.58   246.39   -31.7581   1.3006 -0.1030   0.6289
  1162.58   246.39   -31.0931   1.3019 -0.1038   0.6219
  1162.58   246.39   -30.4137   1.3031 -0.1046   0.6152
  1162.58   246.39   -29.9707   1.3039 -0.1050   0.6110
  1162.58   246.39   -29.4022   1.3046 -0.1055   0.6053
  1162.58   246.39   -28.7497   1.3053 -0.1059   0.5987
  1162.58   246.39   -27.8333   1.3061 -0.1065   0.5903
  1162.58   246.39   -27.1687   1.3064 -0.1069   0.5838
  1162.58   246.39   -26.5745   1.3068 -0.1072   0.5781
  1162.58   246.39   -25.2457   1.3063 -0.1072   0.5663
  1162.58   246.39   -25.0958   1.3063 -0.1073   0.5649
  1162.58   246.39   -24.1461   1.3066 -0.1076   0.5568
  1162.58   246.39   -23.8479   1.3065 -0.1076   0.5544
  1162.58   246.39   -22.1420   1.3055 -0.1073   0.5403
  1162.58   246.39   -21.5456   1.3055 -0.1074   0.5355
  1162.58   246.39   -20.9728   1.3052 -0.1073   0.5313
  1162.58   246.39   -20.4823   1.3048 -0.1071   0.5278
  1162.58   246.39   -19.1000   1.3033 -0.1065   0.5175
  1162.58   246.39   -18.5498   1.3028 -0.1063   0.5135
  1162.58   246.39   -17.6908   1.3021 -0.1061   0.5075
  1162.58   246.39   -17.4722   1.3018 -0.1060   0.5061
  1162.58   246.39   -15.4838   1.2990 -0.1048   0.4926
  1162.58   246.39   -14.8941   1.2983 -0.1046   0.4887
  1162.58   246.39   -14.3367   1.2976 -0.1044   0.4854
  1162.58   246.39   -13.7158   1.2967 -0.1040   0.4817
  1162.58   246.39   -12.1685   1.2941 -0.1029   0.4720
  1162.58   246.39   -11.5379   1.2930 -0.1024   0.4686
  1162.58   246.39   -10.3196   1.2909 -0.1014   0.4619
  1162.58   246.39    -8.3573   1.2879 -0.1002   0.4514
  1162.58   246.39    -8.3473   1.2879 -0.1002   0.4513
  1162.58   246.39    -8.2834   1.2878 -0.1002   0.4510
  1162.58   246.39    -6.6223   1.2848 -0.0989   0.4426
  1162.58   246.39    -5.9245   1.2836 -0.0984   0.4393
  1162.58   246.39    -4.9133   1.2820 -0.0978   0.4343
  1162.58   246.39    -3.8678   1.2803 -0.0972   0.4297
  1162.58   246.39    -2.9176   1.2787 -0.0966   0.4253
  1162.58   246.39    -2.3136   1.2775 -0.0961   0.4227
  1162.58   246.39    -1.3832   1.2758 -0.0955   0.4187

ZONE T="010 case2a a7 medium, p1, wB, line2"
# extract along Z at X=1181.87, Y=246.386, from wing upper surface to at least 59mm high above surface
  1181.87   246.39   -43.2917   0.0000  0.0000   0.0000
  1181.87   246.39   -43.2913   0.0100 -0.0027   0.0057
  1181.87   246.39   -43.2908   0.0208 -0.0056   0.0120
  1181.87   246.39   -43.2902   0.0333 -0.0089   0.0191
  1181.87   246.39   -43.2895   0.0477 -0.0128   0.0274
  1181.87   246.39   -43.2888   0.0643 -0.0172   0.0369
  1181.87   246.39   -43.2879   0.0833 -0.0222   0.0478
  1181.87   246.39   -43.2869   0.1052 -0.0281   0.0603
  1181.87   246.39   -43.2858   0.1304 -0.0347   0.0747
  1181.87   246.39   -43.2845   0.1593 -0.0424   0.0913
  1181.87   246.39   -43.2830   0.1925 -0.0511   0.1103
  1181.87   246.39   -43.2812   0.2307 -0.0611   0.1321
  1181.87   246.39   -43.2792   0.2743 -0.0725   0.1571
  1181.87   246.39   -43.2769   0.3241 -0.0854   0.1854
  1181.87   246.39   -43.2743   0.3803 -0.0998   0.2175
  1181.87   246.39   -43.2712   0.4429 -0.1159   0.2531
  1181.87   246.39   -43.2677   0.5112 -0.1332   0.2920
  1181.87   246.39   -43.2637   0.5831 -0.1514   0.3328
  1181.87   246.39   -43.2591   0.6557 -0.1695   0.3740
  1181.87   246.39   -43.2537   0.7254 -0.1868   0.4135
  1181.87   246.39   -43.2476   0.7891 -0.2025   0.4495
  1181.87   246.39   -43.2406   0.8454 -0.2162   0.4813
  1181.87   246.39   -43.2325   0.8946 -0.2281   0.5090
  1181.87   246.39   -43.2231   0.9376 -0.2384   0.5332
  1181.87   246.39   -43.2124   0.9757 -0.2475   0.5547
  1181.87   246.39   -43.2001   1.0101 -0.2556   0.5740
  1181.87   246.39   -43.1860   1.0418 -0.2631   0.5917
  1181.87   246.39   -43.1697   1.0713 -0.2700   0.6082
  1181.87   246.39   -43.1509   1.0991 -0.2765   0.6237
  1181.87   246.39   -43.1294   1.1255 -0.2827   0.6383
  1181.87   246.39   -43.1046   1.1506 -0.2887   0.6521
  1181.87   246.39   -43.0761   1.1744 -0.2945   0.6652
  1181.87   246.39   -43.0433   1.1971 -0.3001   0.6776
  1181.87   246.39   -43.0057   1.2186 -0.3056   0.6892
  1181.87   246.39   -42.9623   1.2388 -0.3112   0.7001
  1181.87   246.39   -42.9125   1.2578 -0.3167   0.7101
  1181.87   246.39   -42.8552   1.2754 -0.3225   0.7193
  1181.87   246.39   -42.7893   1.2914 -0.3284   0.7276
  1181.87   246.39   -42.7135   1.3057 -0.3347   0.7349
  1181.87   246.39   -42.6263   1.3183 -0.3413   0.7411
  1181.87   246.39   -42.5979   1.3212 -0.3433   0.7425
  1181.87   246.39   -42.5263   1.3288 -0.3484   0.7461
  1181.87   246.39   -42.4114   1.3373 -0.3560   0.7498
  1181.87   246.39   -42.2793   1.3438 -0.3642   0.7523
  1181.87   246.39   -42.1273   1.3481 -0.3729   0.7534
  1181.87   246.39   -41.9526   1.3503 -0.3819   0.7530
  1181.87   246.39   -41.7516   1.3505 -0.3913   0.7511
  1181.87   246.39   -41.5205   1.3486 -0.4010   0.7475
  1181.87   246.39   -41.4566   1.3477 -0.4033   0.7463
  1181.87   246.39   -41.2608   1.3446 -0.4104   0.7422
  1181.87   246.39   -40.9644   1.3388 -0.4194   0.7349
  1181.87   246.39   -40.6237   1.3314 -0.4276   0.7258
  1181.87   246.39   -40.2319   1.3233 -0.4340   0.7147
  1181.87   246.39   -39.8559   1.3171 -0.4365   0.7039
  1181.87   246.39   -39.7813   1.3158 -0.4370   0.7018
  1181.87   246.39   -39.2621   1.3123 -0.4335   0.6875
  1181.87   246.39   -38.6652   1.3186 -0.4194   0.6733
  1181.87   246.39   -37.9784   1.3440 -0.3894   0.6614
  1181.87   246.39   -37.1879   1.3979 -0.3405   0.6553
  1181.87   246.39   -36.3709   1.4661 -0.2882   0.6550
  1181.87   246.39   -36.2801   1.4737 -0.2822   0.6548
  1181.87   246.39   -35.2612   1.5284 -0.2415   0.6490
  1181.87   246.39   -34.0861   1.5367 -0.2296   0.6313
  1181.87   246.39   -33.7610   1.5332 -0.2291   0.6252
  1181.87   246.39   -32.7333   1.5218 -0.2269   0.6066
  1181.87   246.39   -31.1746   1.5074 -0.2209   0.5814
  1181.87   246.39   -31.0422   1.5065 -0.2204   0.5795
  1181.87   246.39   -29.4198   1.4934 -0.2130   0.5562
  1181.87   246.39   -27.4008   1.4781 -0.2045   0.5309
  1181.87   246.39   -25.8544   1.4673 -0.1985   0.5138
  1181.87   246.39   -25.0742   1.4616 -0.1953   0.5057
  1181.87   246.39   -24.1011   1.4556 -0.1919   0.4965
  1181.87   246.39   -23.0513   1.4483 -0.1879   0.4867
  1181.87   246.39   -22.4257   1.4438 -0.1853   0.4810
  1181.87   246.39   -19.7206   1.4267 -0.1761   0.4590
  1181.87   246.39   -18.0699   1.4181 -0.1713   0.4476
  1181.87   246.39   -17.9626   1.4174 -0.1709   0.4469
  1181.87   246.39   -16.6302   1.4096 -0.1665   0.4380
  1181.87   246.39   -16.1108   1.4068 -0.1651   0.4347
  1181.87   246.39   -14.8862   1.4002 -0.1616   0.4273
  1181.87   246.39   -14.6538   1.3989 -0.1609   0.4258
  1181.87   246.39   -14.2607   1.3971 -0.1599   0.4236
  1181.87   246.39   -13.7015   1.3943 -0.1584   0.4203
  1181.87   246.39   -13.2716   1.3920 -0.1572   0.4181
  1181.87   246.39   -12.3834   1.3875 -0.1547   0.4134
  1181.87   246.39   -11.4562   1.3832 -0.1523   0.4090
  1181.87   246.39    -9.4313   1.3741 -0.1474   0.3989
  1181.87   246.39    -9.2840   1.3734 -0.1471   0.3982
  1181.87   246.39    -9.2133   1.3731 -0.1469   0.3978
  1181.87   246.39    -7.0369   1.3639 -0.1421   0.3885
  1181.87   246.39    -6.6059   1.3619 -0.1410   0.3867
  1181.87   246.39    -6.3488   1.3609 -0.1405   0.3857
  1181.87   246.39    -5.4456   1.3573 -0.1386   0.3820
  1181.87   246.39    -3.6459   1.3503 -0.1349   0.3750
  1181.87   246.39    -2.8670   1.3474 -0.1334   0.3722
  1181.87   246.39    -2.5230   1.3461 -0.1327   0.3710
  1181.87   246.39    -1.8672   1.3438 -0.1315   0.3688
  1181.87   246.39    -0.4554   1.3387 -0.1290   0.3639
  1181.87   246.39    -0.1522   1.3377 -0.1285   0.3628
  1181.87   246.39     1.2495   1.3331 -0.1263   0.3586
  1181.87   246.39     2.4981   1.3289 -0.1242   0.3547
  1181.87   246.39     3.2248   1.3265 -0.1230   0.3524
  1181.87   246.39     3.2804   1.3263 -0.1229   0.3522
  1181.87   246.39     3.3012   1.3262 -0.1229   0.3522
  1181.87   246.39     3.7472   1.3248 -0.1222   0.3510
  1181.87   246.39     5.7280   1.3185 -0.1192   0.3451
  1181.87   246.39     5.7811   1.3184 -0.1191   0.3450
  1181.87   246.39     7.5741   1.3132 -0.1166   0.3405
  1181.87   246.39     8.0968   1.3117 -0.1160   0.3390
  1181.87   246.39     8.8658   1.3095 -0.1150   0.3371
  1181.87   246.39    11.6646   1.3018 -0.1113   0.3304
  1181.87   246.39    12.0498   1.3008 -0.1109   0.3293
  1181.87   246.39    12.6058   1.2994 -0.1103   0.3281

ZONE T="010 case2a a7 medium, p1, wC, line1"
# extract along Z at X=1296.28, Y=246.386, from wing upper surface to at least 59mm high above surface
  1296.28   246.39   -37.5955   0.0000  0.0000   0.0000
  1296.28   246.39   -37.5952   0.0031 -0.0002  -0.0001
  1296.28   246.39   -37.5947   0.0060 -0.0004  -0.0002
  1296.28   246.39   -37.5943   0.0093 -0.0006  -0.0004
  1296.28   246.39   -37.5937   0.0132 -0.0008  -0.0005
  1296.28   246.39   -37.5930   0.0177 -0.0011  -0.0007
  1296.28   246.39   -37.5923   0.0228 -0.0015  -0.0009
  1296.28   246.39   -37.5914   0.0288 -0.0018  -0.0011
  1296.28   246.39   -37.5905   0.0356 -0.0023  -0.0014
  1296.28   246.39   -37.5893   0.0434 -0.0028  -0.0017
  1296.28   246.39   -37.5880   0.0523 -0.0034  -0.0021
  1296.28   246.39   -37.5865   0.0625 -0.0041  -0.0025
  1296.28   246.39   -37.5848   0.0741 -0.0050  -0.0029
  1296.28   246.39   -37.5828   0.0873 -0.0059  -0.0034
  1296.28   246.39   -37.5805   0.1024 -0.0071  -0.0040
  1296.28   246.39   -37.5779   0.1196 -0.0084  -0.0047
  1296.28   246.39   -37.5749   0.1392 -0.0099  -0.0055
  1296.28   246.39   -37.5714   0.1615 -0.0118  -0.0063
  1296.28   246.39   -37.5675   0.1868 -0.0139  -0.0073
  1296.28   246.39   -37.5629   0.2153 -0.0164  -0.0085
  1296.28   246.39   -37.5576   0.2470 -0.0193  -0.0097
  1296.28   246.39   -37.5515   0.2814 -0.0227  -0.0111
  1296.28   246.39   -37.5446   0.3175 -0.0263  -0.0125
  1296.28   246.39   -37.5366   0.3537 -0.0302  -0.0139
  1296.28   246.39   -37.5273   0.3881 -0.0340  -0.0153
  1296.28   246.39   -37.5167   0.4194 -0.0377  -0.0165
  1296.28   246.39   -37.5045   0.4467 -0.0411  -0.0176
  1296.28   246.39   -37.4905   0.4705 -0.0443  -0.0185
  1296.28   246.39   -37.4744   0.4911 -0.0472  -0.0193
  1296.28   246.39   -37.4559   0.5096 -0.0500  -0.0200
  1296.28   246.39   -37.4345   0.5265 -0.0528  -0.0206
  1296.28   246.39   -37.4100   0.5425 -0.0555  -0.0212
  1296.28   246.39   -37.3818   0.5578 -0.0583  -0.0217
  1296.28   246.39   -37.3494   0.5728 -0.0613  -0.0222
  1296.28   246.39   -37.3121   0.5877 -0.0645  -0.0227
  1296.28   246.39   -37.2692   0.6027 -0.0679  -0.0232
  1296.28   246.39   -37.2199   0.6179 -0.0716  -0.0236
  1296.28   246.39   -37.1631   0.6333 -0.0756  -0.0240
  1296.28   246.39   -37.0979   0.6491 -0.0800  -0.0244
  1296.28   246.39   -37.0229   0.6654 -0.0849  -0.0247
  1296.28   246.39   -36.9366   0.6823 -0.0902  -0.0251
  1296.28   246.39   -36.8374   0.7000 -0.0962  -0.0254
  1296.28   246.39   -36.7233   0.7185 -0.1028  -0.0256
  1296.28   246.39   -36.5921   0.7381 -0.1102  -0.0258
  1296.28   246.39   -36.4413   0.7589 -0.1185  -0.0259
  1296.28   246.39   -36.2677   0.7812 -0.1278  -0.0260
  1296.28   246.39   -36.0682   0.8050 -0.1383  -0.0259
  1296.28   246.39   -35.8387   0.8305 -0.1501  -0.0257
  1296.28   246.39   -35.5748   0.8578 -0.1632  -0.0254
  1296.28   246.39   -35.2714   0.8869 -0.1778  -0.0248
  1296.28   246.39   -34.9224   0.9178 -0.1937  -0.0240
  1296.28   246.39   -34.5210   0.9498 -0.2107  -0.0229
  1296.28   246.39   -34.0595   0.9824 -0.2280  -0.0215
  1296.28   246.39   -33.5287   1.0143 -0.2445  -0.0197
  1296.28   246.39   -32.9183   1.0443 -0.2583  -0.0176
  1296.28   246.39   -32.2163   1.0716 -0.2669  -0.0153
  1296.28   246.39   -31.4091   1.0972 -0.2681  -0.0130
  1296.28   246.39   -30.4807   1.1242 -0.2606  -0.0109
  1296.28   246.39   -29.4132   1.1568 -0.2441  -0.0090
  1296.28   246.39   -28.1854   1.1991 -0.2188  -0.0074
  1296.28   246.39   -26.7736   1.2522 -0.1868  -0.0059
  1296.28   246.39   -25.1499   1.3104 -0.1535  -0.0044
  1296.28   246.39   -23.2827   1.3519 -0.1288  -0.0020
  1296.28   246.39   -21.1355   1.3646 -0.1190   0.0018
  1296.28   246.39   -18.7994   1.3624 -0.1186   0.0065
  1296.28   246.39   -18.6114   1.3620 -0.1186   0.0068
  1296.28   246.39   -17.4750   1.3595 -0.1188   0.0091
  1296.28   246.39   -16.9517   1.3584 -0.1189   0.0102
  1296.28   246.39   -16.0383   1.3566 -0.1188   0.0119
  1296.28   246.39   -15.6239   1.3559 -0.1187   0.0127
  1296.28   246.39   -15.3486   1.3554 -0.1187   0.0133
  1296.28   246.39   -14.9170   1.3547 -0.1186   0.0141
  1296.28   246.39   -14.1953   1.3537 -0.1183   0.0153
  1296.28   246.39   -13.5542   1.3528 -0.1181   0.0164
  1296.28   246.39   -13.0273   1.3521 -0.1179   0.0173
  1296.28   246.39   -11.9227   1.3508 -0.1174   0.0192
  1296.28   246.39   -11.3065   1.3500 -0.1172   0.0203
  1296.28   246.39   -10.2654   1.3488 -0.1167   0.0220
  1296.28   246.39    -9.2219   1.3476 -0.1162   0.0237
  1296.28   246.39    -8.9919   1.3474 -0.1161   0.0241
  1296.28   246.39    -8.7507   1.3471 -0.1160   0.0245
  1296.28   246.39    -7.4344   1.3454 -0.1154   0.0266
  1296.28   246.39    -6.5220   1.3443 -0.1149   0.0281
  1296.28   246.39    -5.8205   1.3434 -0.1146   0.0292
  1296.28   246.39    -5.6760   1.3432 -0.1145   0.0294
  1296.28   246.39    -5.4047   1.3429 -0.1144   0.0298
  1296.28   246.39    -4.0977   1.3411 -0.1137   0.0319
  1296.28   246.39    -2.6661   1.3393 -0.1129   0.0341
  1296.28   246.39    -1.6423   1.3380 -0.1123   0.0356
  1296.28   246.39    -1.3687   1.3376 -0.1122   0.0360
  1296.28   246.39     0.0003   1.3358 -0.1115   0.0381
  1296.28   246.39     1.4994   1.3338 -0.1107   0.0402
  1296.28   246.39     2.7079   1.3322 -0.1100   0.0420
  1296.28   246.39     3.1439   1.3316 -0.1098   0.0427
  1296.28   246.39     5.1667   1.3289 -0.1087   0.0455
  1296.28   246.39     5.8192   1.3280 -0.1083   0.0464
  1296.28   246.39     6.0688   1.3277 -0.1082   0.0467
  1296.28   246.39     6.9684   1.3265 -0.1077   0.0480
  1296.28   246.39     7.5632   1.3257 -0.1073   0.0488
  1296.28   246.39     9.2482   1.3234 -0.1064   0.0511
  1296.28   246.39    10.1211   1.3223 -0.1059   0.0522
  1296.28   246.39    11.3322   1.3206 -0.1053   0.0537
  1296.28   246.39    12.5418   1.3190 -0.1046   0.0553
  1296.28   246.39    14.1629   1.3169 -0.1038   0.0574
  1296.28   246.39    15.5044   1.3151 -0.1031   0.0590
  1296.28   246.39    15.8702   1.3146 -0.1029   0.0595
  1296.28   246.39    19.0028   1.3105 -0.1013   0.0632
  1296.28   246.39    19.4071   1.3099 -0.1010   0.0636
  1296.28   246.39    20.2590   1.3088 -0.1006   0.0646
  1296.28   246.39    22.0740   1.3064 -0.0996   0.0665
  1296.28   246.39    24.0866   1.3037 -0.0986   0.0687

ZONE T="010 case2a a7 medium, p1, wD, line1"
# extract along Z at X=1461.48, Y=246.386, from wing upper surface to at least 59mm high above surface
  1461.48   246.39   -51.3465   0.0000  0.0000   0.0000
  1461.48   246.39   -51.3462   0.0025  0.0003  -0.0003
  1461.48   246.39   -51.3457   0.0044  0.0005  -0.0005
  1461.48   246.39   -51.3452   0.0066  0.0007  -0.0007
  1461.48   246.39   -51.3447   0.0090  0.0009  -0.0010
  1461.48   246.39   -51.3440   0.0118  0.0012  -0.0013
  1461.48   246.39   -51.3433   0.0149  0.0015  -0.0017
  1461.48   246.39   -51.3424   0.0185  0.0019  -0.0021
  1461.48   246.39   -51.3414   0.0226  0.0023  -0.0025
  1461.48   246.39   -51.3403   0.0273  0.0028  -0.0031
  1461.48   246.39   -51.3389   0.0326  0.0033  -0.0037
  1461.48   246.39   -51.3374   0.0388  0.0039  -0.0044
  1461.48   246.39   -51.3357   0.0458  0.0046  -0.0052
  1461.48   246.39   -51.3337   0.0539  0.0054  -0.0061
  1461.48   246.39   -51.3314   0.0632  0.0063  -0.0071
  1461.48   246.39   -51.3287   0.0740  0.0073  -0.0083
  1461.48   246.39   -51.3257   0.0863  0.0084  -0.0097
  1461.48   246.39   -51.3221   0.1004  0.0097  -0.0113
  1461.48   246.39   -51.3181   0.1166  0.0111  -0.0132
  1461.48   246.39   -51.3135   0.1351  0.0127  -0.0153
  1461.48   246.39   -51.3081   0.1562  0.0145  -0.0177
  1461.48   246.39   -51.3020   0.1798  0.0164  -0.0204
  1461.48   246.39   -51.2949   0.2059  0.0184  -0.0234
  1461.48   246.39   -51.2868   0.2340  0.0204  -0.0266
  1461.48   246.39   -51.2775   0.2631  0.0224  -0.0300
  1461.48   246.39   -51.2668   0.2917  0.0242  -0.0333
  1461.48   246.39   -51.2544   0.3185  0.0257  -0.0364
  1461.48   246.39   -51.2402   0.3424  0.0269  -0.0392
  1461.48   246.39   -51.2239   0.3631  0.0278  -0.0416
  1461.48   246.39   -51.2051   0.3811  0.0285  -0.0437
  1461.48   246.39   -51.1835   0.3969  0.0289  -0.0455
  1461.48   246.39   -51.1587   0.4111  0.0291  -0.0472
  1461.48   246.39   -51.1302   0.4243  0.0291  -0.0487
  1461.48   246.39   -51.0973   0.4368  0.0290  -0.0501
  1461.48   246.39   -51.0596   0.4490  0.0288  -0.0515
  1461.48   246.39   -51.0162   0.4609  0.0283  -0.0528
  1461.48   246.39   -50.9662   0.4729  0.0277  -0.0542
  1461.48   246.39   -50.9088   0.4850  0.0269  -0.0555
  1461.48   246.39   -50.8428   0.4972  0.0258  -0.0568
  1461.48   246.39   -50.7668   0.5097  0.0245  -0.0582
  1461.48   246.39   -50.6795   0.5225  0.0229  -0.0595
  1461.48   246.39   -50.5791   0.5357  0.0210  -0.0609
  1461.48   246.39   -50.4636   0.5493  0.0188  -0.0623
  1461.48   246.39   -50.3307   0.5636  0.0161  -0.0637
  1461.48   246.39   -50.1780   0.5785  0.0131  -0.0651
  1461.48   246.39   -50.0023   0.5943  0.0096  -0.0665
  1461.48   246.39   -49.8003   0.6111  0.0055  -0.0680
  1461.48   246.39   -49.5680   0.6290  0.0008  -0.0695
  1461.48   246.39   -49.3008   0.6483 -0.0045  -0.0711
  1461.48   246.39   -48.9936   0.6692 -0.0106  -0.0727
  1461.48   246.39   -48.6403   0.6918 -0.0175  -0.0744
  1461.48   246.39   -48.2340   0.7165 -0.0253  -0.0761
  1461.48   246.39   -47.7667   0.7434 -0.0340  -0.0780
  1461.48   246.39   -47.2294   0.7728 -0.0436  -0.0800
  1461.48   246.39   -46.7650   0.7968 -0.0514  -0.0816
  1461.48   246.39   -46.6114   0.8048 -0.0540  -0.0822
  1461.48   246.39   -45.9008   0.8395 -0.0650  -0.0846
  1461.48   246.39   -45.0835   0.8774 -0.0761  -0.0874
  1461.48   246.39   -44.1437   0.9185 -0.0869  -0.0906
  1461.48   246.39   -43.0629   0.9630 -0.0963  -0.0943
  1461.48   246.39   -41.8199   1.0103 -0.1026  -0.0985
  1461.48   246.39   -40.3905   1.0591 -0.1039  -0.1030
  1461.48   246.39   -39.2185   1.0931 -0.0995  -0.1062
  1461.48   246.39   -38.7468   1.1067 -0.0976  -0.1075
  1461.48   246.39   -36.8641   1.1517 -0.0824  -0.1119
  1461.48   246.39   -36.3799   1.1620 -0.0774  -0.1130
  1461.48   246.39   -35.2103   1.1868 -0.0653  -0.1156
  1461.48   246.39   -34.7606   1.1959 -0.0606  -0.1164
  1461.48   246.39   -34.2551   1.2051 -0.0556  -0.1173
  1461.48   246.39   -33.9226   1.2111 -0.0522  -0.1179
  1461.48   246.39   -32.9261   1.2292 -0.0430  -0.1197
  1461.48   246.39   -32.8112   1.2309 -0.0421  -0.1199
  1461.48   246.39   -32.1011   1.2393 -0.0376  -0.1204
  1461.48   246.39   -31.7889   1.2431 -0.0356  -0.1206
  1461.48   246.39   -31.7477   1.2437 -0.0353  -0.1207
  1461.48   246.39   -30.5984   1.2553 -0.0296  -0.1215
  1461.48   246.39   -30.3745   1.2569 -0.0287  -0.1216
  1461.48   246.39   -29.6045   1.2609 -0.0264  -0.1215
  1461.48   246.39   -28.9385   1.2626 -0.0257  -0.1212
  1461.48   246.39   -28.8574   1.2628 -0.0256  -0.1212
  1461.48   246.39   -27.5893   1.2635 -0.0255  -0.1201
  1461.48   246.39   -26.7361   1.2641 -0.0255  -0.1193
  1461.48   246.39   -26.5571   1.2641 -0.0255  -0.1192
  1461.48   246.39   -26.4318   1.2641 -0.0256  -0.1191
  1461.48   246.39   -24.6644   1.2629 -0.0272  -0.1170
  1461.48   246.39   -23.9978   1.2623 -0.0278  -0.1162
  1461.48   246.39   -23.7490   1.2620 -0.0281  -0.1160
  1461.48   246.39   -22.4767   1.2608 -0.0292  -0.1145
  1461.48   246.39   -21.6250   1.2601 -0.0299  -0.1135
  1461.48   246.39   -21.1317   1.2598 -0.0302  -0.1129
  1461.48   246.39   -19.3436   1.2584 -0.0315  -0.1110
  1461.48   246.39   -18.8246   1.2582 -0.0317  -0.1104
  1461.48   246.39   -17.5656   1.2576 -0.0322  -0.1091
  1461.48   246.39   -16.8839   1.2573 -0.0325  -0.1085
  1461.48   246.39   -15.4955   1.2568 -0.0329  -0.1071
  1461.48   246.39   -14.7401   1.2565 -0.0331  -0.1063
  1461.48   246.39   -14.6566   1.2565 -0.0332  -0.1063
  1461.48   246.39   -14.6208   1.2565 -0.0332  -0.1062
  1461.48   246.39   -14.3220   1.2564 -0.0333  -0.1059
  1461.48   246.39   -14.1116   1.2563 -0.0333  -0.1057
  1461.48   246.39   -13.4316   1.2561 -0.0335  -0.1050
  1461.48   246.39   -10.4170   1.2549 -0.0343  -0.1020
  1461.48   246.39    -8.8828   1.2543 -0.0346  -0.1004
  1461.48   246.39    -8.6473   1.2542 -0.0347  -0.1002
  1461.48   246.39    -8.5046   1.2541 -0.0347  -0.1001
  1461.48   246.39    -6.2331   1.2530 -0.0351  -0.0978
  1461.48   246.39    -6.2008   1.2530 -0.0352  -0.0978
  1461.48   246.39    -5.0606   1.2525 -0.0354  -0.0966
  1461.48   246.39    -4.7654   1.2524 -0.0354  -0.0964
  1461.48   246.39    -4.4132   1.2522 -0.0355  -0.0960
  1461.48   246.39    -3.1174   1.2515 -0.0357  -0.0947
  1461.48   246.39    -1.9943   1.2510 -0.0359  -0.0936
  1461.48   246.39    -1.2758   1.2506 -0.0360  -0.0929
  1461.48   246.39    -0.4434   1.2502 -0.0361  -0.0920
  1461.48   246.39     0.4298   1.2497 -0.0362  -0.0912
  1461.48   246.39     1.1336   1.2494 -0.0363  -0.0905
  1461.48   246.39     2.8042   1.2485 -0.0365  -0.0889
  1461.48   246.39     3.2200   1.2483 -0.0365  -0.0885
  1461.48   246.39     3.4116   1.2482 -0.0366  -0.0883