TITLE = "014 case2b vel"

VARIABLES = "X" "Y" "Z" "u/Uinf" "v/Uinf" "w/Uinf"

ZONE T="014 case2b a12.0 adaptive_mesh_finest p1,wB,line1"
 1.162580e+03 2.463860e+02 -6.002868e+01 6.986525e-01 7.453998e-02 1.234322e+00
 1.162580e+03 2.463860e+02 -5.982868e+01 7.073175e-01 6.910652e-02 1.235693e+00
 1.162580e+03 2.463860e+02 -5.962868e+01 7.168869e-01 6.318992e-02 1.235946e+00
 1.162580e+03 2.463860e+02 -5.942868e+01 7.279443e-01 5.647823e-02 1.234359e+00
 1.162580e+03 2.463860e+02 -5.922868e+01 7.390019e-01 4.976654e-02 1.232772e+00
 1.162580e+03 2.463860e+02 -5.902868e+01 7.502821e-01 4.252529e-02 1.232251e+00
 1.162580e+03 2.463860e+02 -5.882868e+01 7.622290e-01 3.369972e-02 1.234919e+00
 1.162580e+03 2.463860e+02 -5.862868e+01 7.741758e-01 2.487416e-02 1.237587e+00
 1.162580e+03 2.463860e+02 -5.842868e+01 7.865405e-01 1.661681e-02 1.237683e+00
 1.162580e+03 2.463860e+02 -5.822868e+01 7.979616e-01 8.985606e-03 1.236564e+00
 1.162580e+03 2.463860e+02 -5.802868e+01 8.092960e-01 1.734110e-03 1.235276e+00
 1.162580e+03 2.463860e+02 -5.782868e+01 8.206649e-01 -5.471982e-03 1.233923e+00
 1.162580e+03 2.463860e+02 -5.762868e+01 8.320338e-01 -1.267807e-02 1.232569e+00
 1.162580e+03 2.463860e+02 -5.742868e+01 8.434028e-01 -1.988417e-02 1.231216e+00
 1.162580e+03 2.463860e+02 -5.722868e+01 8.547715e-01 -2.708921e-02 1.229873e+00
 1.162580e+03 2.463860e+02 -5.702868e+01 8.661355e-01 -3.426759e-02 1.228798e+00
 1.162580e+03 2.463860e+02 -5.682868e+01 8.776964e-01 -4.168747e-02 1.227740e+00
 1.162580e+03 2.463860e+02 -5.662868e+01 8.909087e-01 -5.113128e-02 1.226817e+00
 1.162580e+03 2.463860e+02 -5.642868e+01 9.041209e-01 -6.057508e-02 1.225894e+00
 1.162580e+03 2.463860e+02 -5.622868e+01 9.173333e-01 -7.001890e-02 1.224972e+00
 1.162580e+03 2.463860e+02 -5.602868e+01 9.305456e-01 -7.946270e-02 1.224049e+00
 1.162580e+03 2.463860e+02 -5.582868e+01 9.437581e-01 -8.890669e-02 1.223126e+00
 1.162580e+03 2.463860e+02 -5.562868e+01 9.572136e-01 -9.770242e-02 1.222034e+00
 1.162580e+03 2.463860e+02 -5.542868e+01 9.656042e-01 -1.032654e-01 1.216683e+00
 1.162580e+03 2.463860e+02 -5.522868e+01 9.734051e-01 -1.080034e-01 1.210577e+00
 1.162580e+03 2.463860e+02 -5.502868e+01 9.812060e-01 -1.127413e-01 1.204471e+00
 1.162580e+03 2.463860e+02 -5.482868e+01 9.893614e-01 -1.179404e-01 1.199225e+00
 1.162580e+03 2.463860e+02 -5.462868e+01 9.991317e-01 -1.252406e-01 1.197896e+00
 1.162580e+03 2.463860e+02 -5.442868e+01 1.008902e+00 -1.325408e-01 1.196567e+00
 1.162580e+03 2.463860e+02 -5.422868e+01 1.016534e+00 -1.405886e-01 1.197896e+00
 1.162580e+03 2.463860e+02 -5.402868e+01 1.023049e+00 -1.490264e-01 1.200610e+00
 1.162580e+03 2.463860e+02 -5.382868e+01 1.029565e+00 -1.574641e-01 1.203324e+00
 1.162580e+03 2.463860e+02 -5.362868e+01 1.036081e+00 -1.659021e-01 1.206038e+00
 1.162580e+03 2.463860e+02 -5.342868e+01 1.042596e+00 -1.743399e-01 1.208752e+00
 1.162580e+03 2.463860e+02 -5.322868e+01 1.049112e+00 -1.827777e-01 1.211466e+00
 1.162580e+03 2.463860e+02 -5.302868e+01 1.055184e+00 -1.905800e-01 1.215014e+00
 1.162580e+03 2.463860e+02 -5.282868e+01 1.060993e+00 -1.980029e-01 1.219061e+00
 1.162580e+03 2.463860e+02 -5.262868e+01 1.066464e+00 -2.048522e-01 1.222349e+00
 1.162580e+03 2.463860e+02 -5.242868e+01 1.065685e+00 -2.010657e-01 1.211565e+00
 1.162580e+03 2.463860e+02 -5.222868e+01 1.064907e+00 -1.972792e-01 1.200782e+00
 1.162580e+03 2.463860e+02 -5.202868e+01 1.064235e+00 -1.930325e-01 1.186547e+00
 1.162580e+03 2.463860e+02 -5.182868e+01 1.071292e+00 -1.934350e-01 1.179756e+00
 1.162580e+03 2.463860e+02 -5.162868e+01 1.089290e+00 -2.007987e-01 1.186074e+00
 1.162580e+03 2.463860e+02 -5.142868e+01 1.106787e+00 -2.077993e-01 1.191806e+00
 1.162580e+03 2.463860e+02 -5.122868e+01 1.102257e+00 -1.988137e-01 1.171743e+00
 1.162580e+03 2.463860e+02 -5.102868e+01 1.097728e+00 -1.898281e-01 1.151681e+00
 1.162580e+03 2.463860e+02 -5.082868e+01 1.103966e+00 -2.044414e-01 1.154974e+00
 1.162580e+03 2.463860e+02 -5.062868e+01 1.102568e+00 -2.185395e-01 1.149040e+00
 1.162580e+03 2.463860e+02 -5.042868e+01 1.092390e+00 -2.274582e-01 1.130423e+00
 1.162580e+03 2.463860e+02 -5.022868e+01 1.082212e+00 -2.363770e-01 1.111806e+00
 1.162580e+03 2.463860e+02 -5.002868e+01 1.076228e+00 -2.474663e-01 1.100363e+00
 1.162580e+03 2.463860e+02 -4.982868e+01 1.069462e+00 -2.508173e-01 1.085017e+00
 1.162580e+03 2.463860e+02 -4.962868e+01 1.050617e+00 -2.218927e-01 1.039912e+00
 1.162580e+03 2.463860e+02 -4.942868e+01 1.031772e+00 -1.929682e-01 9.948060e-01
 1.162580e+03 2.463860e+02 -4.922868e+01 1.012927e+00 -1.640432e-01 9.496996e-01
 1.162580e+03 2.463860e+02 -4.902868e+01 9.713005e-01 -1.212918e-01 8.791509e-01
 1.162580e+03 2.463860e+02 -4.882868e+01 9.276170e-01 -7.729191e-02 8.063048e-01
 1.162580e+03 2.463860e+02 -4.862868e+01 8.839333e-01 -3.329206e-02 7.334586e-01
 1.162580e+03 2.463860e+02 -4.842868e+01 8.369030e-01 1.160073e-02 6.591716e-01
 1.162580e+03 2.463860e+02 -4.822868e+01 9.048385e-01 1.148119e-03 6.991796e-01
 1.162580e+03 2.463860e+02 -4.802868e+01 9.754915e-01 -1.905347e-02 7.447461e-01
 1.162580e+03 2.463860e+02 -4.782868e+01 1.016787e+00 -2.279242e-02 7.660670e-01
 1.162580e+03 2.463860e+02 -4.762868e+01 1.060144e+00 -2.814234e-02 7.866591e-01
 1.162580e+03 2.463860e+02 -4.742868e+01 1.103884e+00 -3.379240e-02 8.071153e-01
 1.162580e+03 2.463860e+02 -4.722868e+01 1.147624e+00 -3.944247e-02 8.275715e-01
 1.162580e+03 2.463860e+02 -4.702868e+01 1.191364e+00 -4.509264e-02 8.480281e-01
 1.162580e+03 2.463860e+02 -4.682868e+01 1.235105e+00 -5.074271e-02 8.684844e-01
 1.162580e+03 2.463860e+02 -4.662868e+01 1.278845e+00 -5.639277e-02 8.889407e-01
 1.162580e+03 2.463860e+02 -4.642868e+01 1.322585e+00 -6.204284e-02 9.093968e-01
 1.162580e+03 2.463860e+02 -4.622868e+01 1.368519e+00 -7.619436e-02 9.476032e-01
 1.162580e+03 2.463860e+02 -4.602868e+01 1.415710e+00 -9.524644e-02 9.960722e-01
 1.162580e+03 2.463860e+02 -4.582868e+01 1.432207e+00 -1.021012e-01 1.006102e+00
 1.162580e+03 2.463860e+02 -4.562868e+01 1.425505e+00 -1.046942e-01 9.958095e-01
 1.162580e+03 2.463860e+02 -4.542868e+01 1.418803e+00 -1.072872e-01 9.855173e-01
 1.162580e+03 2.463860e+02 -4.522868e+01 1.412682e+00 -1.104612e-01 9.761320e-01
 1.162580e+03 2.463860e+02 -4.502868e+01 1.407394e+00 -1.144685e-01 9.680477e-01
 1.162580e+03 2.463860e+02 -4.482868e+01 1.402107e+00 -1.184759e-01 9.599632e-01
 1.162580e+03 2.463860e+02 -4.462868e+01 1.396820e+00 -1.224832e-01 9.518788e-01
 1.162580e+03 2.463860e+02 -4.442868e+01 1.391532e+00 -1.264905e-01 9.437945e-01
 1.162580e+03 2.463860e+02 -4.422868e+01 1.389430e+00 -1.287880e-01 9.393239e-01
 1.162580e+03 2.463860e+02 -4.402868e+01 1.389575e+00 -1.298794e-01 9.374023e-01
 1.162580e+03 2.463860e+02 -4.382868e+01 1.389720e+00 -1.309709e-01 9.354806e-01
 1.162580e+03 2.463860e+02 -4.362868e+01 1.387938e+00 -1.313084e-01 9.335591e-01
 1.162580e+03 2.463860e+02 -4.342868e+01 1.384249e+00 -1.308993e-01 9.316376e-01
 1.162580e+03 2.463860e+02 -4.322868e+01 1.385563e+00 -1.311864e-01 9.307726e-01
 1.162580e+03 2.463860e+02 -4.302868e+01 1.388690e+00 -1.317260e-01 9.302906e-01
 1.162580e+03 2.463860e+02 -4.282868e+01 1.391818e+00 -1.322656e-01 9.298086e-01
 1.162580e+03 2.463860e+02 -4.262868e+01 1.394946e+00 -1.328052e-01 9.293266e-01
 1.162580e+03 2.463860e+02 -4.242868e+01 1.398074e+00 -1.333448e-01 9.288447e-01
 1.162580e+03 2.463860e+02 -4.222868e+01 1.401202e+00 -1.338844e-01 9.283627e-01
 1.162580e+03 2.463860e+02 -4.202868e+01 1.404059e+00 -1.355766e-01 9.258097e-01
 1.162580e+03 2.463860e+02 -4.182868e+01 1.406847e+00 -1.375681e-01 9.227189e-01
 1.162580e+03 2.463860e+02 -4.162868e+01 1.409634e+00 -1.395596e-01 9.196281e-01
 1.162580e+03 2.463860e+02 -4.142868e+01 1.412421e+00 -1.415510e-01 9.165372e-01
 1.162580e+03 2.463860e+02 -4.122868e+01 1.415209e+00 -1.435425e-01 9.134464e-01
 1.162580e+03 2.463860e+02 -4.102868e+01 1.420016e+00 -1.454323e-01 9.117165e-01
 1.162580e+03 2.463860e+02 -4.082868e+01 1.422043e+00 -1.458804e-01 9.093094e-01
 1.162580e+03 2.463860e+02 -4.062868e+01 1.422608e+00 -1.476107e-01 9.063633e-01
 1.162580e+03 2.463860e+02 -4.042868e+01 1.423049e+00 -1.495497e-01 9.033775e-01
 1.162580e+03 2.463860e+02 -4.022868e+01 1.423491e+00 -1.514887e-01 9.003918e-01
 1.162580e+03 2.463860e+02 -4.002868e+01 1.423933e+00 -1.534277e-01 8.974060e-01
 1.162580e+03 2.463860e+02 -3.982868e+01 1.424376e+00 -1.553669e-01 8.944245e-01
 1.162580e+03 2.463860e+02 -3.962868e+01 1.424702e+00 -1.572699e-01 8.909056e-01
 1.162580e+03 2.463860e+02 -3.942868e+01 1.425028e+00 -1.591730e-01 8.873869e-01
 1.162580e+03 2.463860e+02 -3.922868e+01 1.425354e+00 -1.610761e-01 8.838680e-01
 1.162580e+03 2.463860e+02 -3.902868e+01 1.425680e+00 -1.629791e-01 8.803492e-01
 1.162580e+03 2.463860e+02 -3.882868e+01 1.426007e+00 -1.648822e-01 8.768304e-01
 1.162580e+03 2.463860e+02 -3.862868e+01 1.426554e+00 -1.667061e-01 8.733930e-01
 1.162580e+03 2.463860e+02 -3.842868e+01 1.430290e+00 -1.673872e-01 8.711318e-01
 1.162580e+03 2.463860e+02 -3.822868e+01 1.434027e+00 -1.680683e-01 8.688706e-01
 1.162580e+03 2.463860e+02 -3.802868e+01 1.437763e+00 -1.687494e-01 8.666094e-01
 1.162580e+03 2.463860e+02 -3.782868e+01 1.441500e+00 -1.694306e-01 8.643483e-01
 1.162580e+03 2.463860e+02 -3.762868e+01 1.443660e+00 -1.700532e-01 8.614162e-01
 1.162580e+03 2.463860e+02 -3.742868e+01 1.442890e+00 -1.705673e-01 8.572371e-01
 1.162580e+03 2.463860e+02 -3.722868e+01 1.442120e+00 -1.710813e-01 8.530580e-01
 1.162580e+03 2.463860e+02 -3.702868e+01 1.441350e+00 -1.715954e-01 8.488790e-01
 1.162580e+03 2.463860e+02 -3.682868e+01 1.440580e+00 -1.721094e-01 8.446999e-01
 1.162580e+03 2.463860e+02 -3.662868e+01 1.439810e+00 -1.726234e-01 8.405208e-01
 1.162580e+03 2.463860e+02 -3.642868e+01 1.439040e+00 -1.731375e-01 8.363418e-01
 1.162580e+03 2.463860e+02 -3.622868e+01 1.440092e+00 -1.734442e-01 8.342605e-01
 1.162580e+03 2.463860e+02 -3.602868e+01 1.441337e+00 -1.737290e-01 8.324011e-01
 1.162580e+03 2.463860e+02 -3.582868e+01 1.442581e+00 -1.740138e-01 8.305416e-01
 1.162580e+03 2.463860e+02 -3.562868e+01 1.443826e+00 -1.742986e-01 8.286822e-01
 1.162580e+03 2.463860e+02 -3.542868e+01 1.445068e+00 -1.746249e-01 8.261952e-01
 1.162580e+03 2.463860e+02 -3.522868e+01 1.446310e+00 -1.749626e-01 8.235357e-01
 1.162580e+03 2.463860e+02 -3.502868e+01 1.447551e+00 -1.753003e-01 8.208761e-01
 1.162580e+03 2.463860e+02 -3.482868e+01 1.448793e+00 -1.756380e-01 8.182166e-01
 1.162580e+03 2.463860e+02 -3.462868e+01 1.450034e+00 -1.759757e-01 8.155570e-01
 1.162580e+03 2.463860e+02 -3.442868e+01 1.451246e+00 -1.763324e-01 8.129059e-01
 1.162580e+03 2.463860e+02 -3.422868e+01 1.451777e+00 -1.771143e-01 8.104434e-01
 1.162580e+03 2.463860e+02 -3.402868e+01 1.452309e+00 -1.778961e-01 8.079808e-01
 1.162580e+03 2.463860e+02 -3.382868e+01 1.452346e+00 -1.781281e-01 8.056391e-01
 1.162580e+03 2.463860e+02 -3.362868e+01 1.452227e+00 -1.781876e-01 8.033354e-01
 1.162580e+03 2.463860e+02 -3.342868e+01 1.452108e+00 -1.782471e-01 8.010316e-01
 1.162580e+03 2.463860e+02 -3.322868e+01 1.451989e+00 -1.783066e-01 7.987278e-01
 1.162580e+03 2.463860e+02 -3.302868e+01 1.451871e+00 -1.783661e-01 7.964241e-01
 1.162580e+03 2.463860e+02 -3.282868e+01 1.451752e+00 -1.784256e-01 7.941203e-01
 1.162580e+03 2.463860e+02 -3.262868e+01 1.451678e+00 -1.785348e-01 7.918380e-01
 1.162580e+03 2.463860e+02 -3.242868e+01 1.451693e+00 -1.787432e-01 7.895987e-01
 1.162580e+03 2.463860e+02 -3.222868e+01 1.451708e+00 -1.789516e-01 7.873594e-01
 1.162580e+03 2.463860e+02 -3.202868e+01 1.451723e+00 -1.791600e-01 7.851200e-01
 1.162580e+03 2.463860e+02 -3.182868e+01 1.451738e+00 -1.793685e-01 7.828807e-01
 1.162580e+03 2.463860e+02 -3.162868e+01 1.451681e+00 -1.795667e-01 7.803577e-01
 1.162580e+03 2.463860e+02 -3.142868e+01 1.451538e+00 -1.797529e-01 7.775036e-01
 1.162580e+03 2.463860e+02 -3.122868e+01 1.451500e+00 -1.799873e-01 7.746685e-01
 1.162580e+03 2.463860e+02 -3.102868e+01 1.451595e+00 -1.802839e-01 7.718578e-01
 1.162580e+03 2.463860e+02 -3.082868e+01 1.451691e+00 -1.805806e-01 7.690471e-01
 1.162580e+03 2.463860e+02 -3.062868e+01 1.451787e+00 -1.808772e-01 7.662364e-01
 1.162580e+03 2.463860e+02 -3.042868e+01 1.451882e+00 -1.811738e-01 7.634258e-01
 1.162580e+03 2.463860e+02 -3.022868e+01 1.451978e+00 -1.814704e-01 7.606150e-01
 1.162580e+03 2.463860e+02 -3.002868e+01 1.452073e+00 -1.817670e-01 7.578044e-01
 1.162580e+03 2.463860e+02 -2.982868e+01 1.452169e+00 -1.820636e-01 7.549937e-01
 1.162580e+03 2.463860e+02 -2.962868e+01 1.452265e+00 -1.823602e-01 7.521830e-01
 1.162580e+03 2.463860e+02 -2.942868e+01 1.452360e+00 -1.826569e-01 7.493724e-01
 1.162580e+03 2.463860e+02 -2.922868e+01 1.451797e+00 -1.821197e-01 7.462344e-01
 1.162580e+03 2.463860e+02 -2.902868e+01 1.450938e+00 -1.812097e-01 7.429500e-01
 1.162580e+03 2.463860e+02 -2.882868e+01 1.450080e+00 -1.802996e-01 7.396656e-01
 1.162580e+03 2.463860e+02 -2.862868e+01 1.449503e+00 -1.802166e-01 7.373170e-01
 1.162580e+03 2.463860e+02 -2.842868e+01 1.448987e+00 -1.803075e-01 7.351653e-01
 1.162580e+03 2.463860e+02 -2.822868e+01 1.448521e+00 -1.806435e-01 7.332064e-01
 1.162580e+03 2.463860e+02 -2.802868e+01 1.448359e+00 -1.810554e-01 7.313884e-01
 1.162580e+03 2.463860e+02 -2.782868e+01 1.448755e+00 -1.812640e-01 7.295798e-01
 1.162580e+03 2.463860e+02 -2.762868e+01 1.449152e+00 -1.814727e-01 7.277713e-01
 1.162580e+03 2.463860e+02 -2.742868e+01 1.449549e+00 -1.816813e-01 7.259627e-01
 1.162580e+03 2.463860e+02 -2.722868e+01 1.449946e+00 -1.818899e-01 7.241541e-01
 1.162580e+03 2.463860e+02 -2.702868e+01 1.450282e+00 -1.820648e-01 7.223244e-01
 1.162580e+03 2.463860e+02 -2.682868e+01 1.450376e+00 -1.821027e-01 7.204084e-01
 1.162580e+03 2.463860e+02 -2.662868e+01 1.450469e+00 -1.821407e-01 7.184925e-01
 1.162580e+03 2.463860e+02 -2.642868e+01 1.450563e+00 -1.821786e-01 7.165765e-01
 1.162580e+03 2.463860e+02 -2.622868e+01 1.450656e+00 -1.822165e-01 7.146606e-01
 1.162580e+03 2.463860e+02 -2.602868e+01 1.450750e+00 -1.822544e-01 7.127446e-01
 1.162580e+03 2.463860e+02 -2.582868e+01 1.450843e+00 -1.822923e-01 7.108287e-01
 1.162580e+03 2.463860e+02 -2.562868e+01 1.450937e+00 -1.823302e-01 7.089127e-01
 1.162580e+03 2.463860e+02 -2.542868e+01 1.451030e+00 -1.823681e-01 7.069967e-01
 1.162580e+03 2.463860e+02 -2.522868e+01 1.451124e+00 -1.824060e-01 7.050808e-01
 1.162580e+03 2.463860e+02 -2.502868e+01 1.451217e+00 -1.824439e-01 7.031648e-01
 1.162580e+03 2.463860e+02 -2.482868e+01 1.451310e+00 -1.824818e-01 7.012489e-01
 1.162580e+03 2.463860e+02 -2.462868e+01 1.451396e+00 -1.825152e-01 6.993216e-01
 1.162580e+03 2.463860e+02 -2.442868e+01 1.451361e+00 -1.824840e-01 6.972329e-01
 1.162580e+03 2.463860e+02 -2.422868e+01 1.451003e+00 -1.822331e-01 6.952027e-01
 1.162580e+03 2.463860e+02 -2.402868e+01 1.450606e+00 -1.819551e-01 6.931798e-01
 1.162580e+03 2.463860e+02 -2.382868e+01 1.450208e+00 -1.816772e-01 6.911568e-01
 1.162580e+03 2.463860e+02 -2.362868e+01 1.449810e+00 -1.813993e-01 6.891339e-01
 1.162580e+03 2.463860e+02 -2.342868e+01 1.449412e+00 -1.811214e-01 6.871109e-01
 1.162580e+03 2.463860e+02 -2.322868e+01 1.449014e+00 -1.808434e-01 6.850880e-01
 1.162580e+03 2.463860e+02 -2.302868e+01 1.448616e+00 -1.805655e-01 6.830650e-01
 1.162580e+03 2.463860e+02 -2.282868e+01 1.448219e+00 -1.802876e-01 6.810420e-01
 1.162580e+03 2.463860e+02 -2.262868e+01 1.447821e+00 -1.800097e-01 6.790191e-01
 1.162580e+03 2.463860e+02 -2.242868e+01 1.447423e+00 -1.797317e-01 6.769961e-01
 1.162580e+03 2.463860e+02 -2.222868e+01 1.447025e+00 -1.794538e-01 6.749732e-01
 1.162580e+03 2.463860e+02 -2.202868e+01 1.446627e+00 -1.791759e-01 6.729502e-01
 1.162580e+03 2.463860e+02 -2.182868e+01 1.446230e+00 -1.788980e-01 6.709273e-01
 1.162580e+03 2.463860e+02 -2.162868e+01 1.445832e+00 -1.786200e-01 6.689043e-01
 1.162580e+03 2.463860e+02 -2.142868e+01 1.445434e+00 -1.783421e-01 6.668814e-01
 1.162580e+03 2.463860e+02 -2.122868e+01 1.445036e+00 -1.780642e-01 6.648584e-01
 1.162580e+03 2.463860e+02 -2.102868e+01 1.444638e+00 -1.777863e-01 6.628355e-01
 1.162580e+03 2.463860e+02 -2.082868e+01 1.444205e+00 -1.774858e-01 6.608099e-01
 1.162580e+03 2.463860e+02 -2.062868e+01 1.443761e+00 -1.771790e-01 6.587837e-01
 1.162580e+03 2.463860e+02 -2.042868e+01 1.443274e+00 -1.768588e-01 6.567887e-01
 1.162580e+03 2.463860e+02 -2.022868e+01 1.442521e+00 -1.764574e-01 6.549829e-01
 1.162580e+03 2.463860e+02 -2.002868e+01 1.441768e+00 -1.760559e-01 6.531771e-01
 1.162580e+03 2.463860e+02 -1.982868e+01 1.441016e+00 -1.756544e-01 6.513713e-01
 1.162580e+03 2.463860e+02 -1.962868e+01 1.440263e+00 -1.752530e-01 6.495654e-01
 1.162580e+03 2.463860e+02 -1.942868e+01 1.439511e+00 -1.748515e-01 6.477596e-01
 1.162580e+03 2.463860e+02 -1.922868e+01 1.438939e+00 -1.747229e-01 6.462723e-01
 1.162580e+03 2.463860e+02 -1.902868e+01 1.438370e+00 -1.745975e-01 6.447888e-01
 1.162580e+03 2.463860e+02 -1.882868e+01 1.437800e+00 -1.744721e-01 6.433053e-01
 1.162580e+03 2.463860e+02 -1.862868e+01 1.437230e+00 -1.743468e-01 6.418218e-01
 1.162580e+03 2.463860e+02 -1.842868e+01 1.436661e+00 -1.742214e-01 6.403383e-01
 1.162580e+03 2.463860e+02 -1.822868e+01 1.436091e+00 -1.740961e-01 6.388548e-01
 1.162580e+03 2.463860e+02 -1.802868e+01 1.435522e+00 -1.739707e-01 6.373712e-01
 1.162580e+03 2.463860e+02 -1.782868e+01 1.434952e+00 -1.738453e-01 6.358878e-01
 1.162580e+03 2.463860e+02 -1.762868e+01 1.434382e+00 -1.737200e-01 6.344043e-01
 1.162580e+03 2.463860e+02 -1.742868e+01 1.433813e+00 -1.735946e-01 6.329208e-01
 1.162580e+03 2.463860e+02 -1.722868e+01 1.433481e+00 -1.736462e-01 6.314167e-01
 1.162580e+03 2.463860e+02 -1.702868e+01 1.433210e+00 -1.737427e-01 6.299074e-01
 1.162580e+03 2.463860e+02 -1.682868e+01 1.432939e+00 -1.738392e-01 6.283982e-01
 1.162580e+03 2.463860e+02 -1.662868e+01 1.432667e+00 -1.739357e-01 6.268889e-01
 1.162580e+03 2.463860e+02 -1.642868e+01 1.432396e+00 -1.740322e-01 6.253796e-01
 1.162580e+03 2.463860e+02 -1.622868e+01 1.432125e+00 -1.741286e-01 6.238704e-01
 1.162580e+03 2.463860e+02 -1.602868e+01 1.431853e+00 -1.742251e-01 6.223611e-01
 1.162580e+03 2.463860e+02 -1.582868e+01 1.431708e+00 -1.743732e-01 6.207360e-01
 1.162580e+03 2.463860e+02 -1.562868e+01 1.431678e+00 -1.745684e-01 6.190053e-01
 1.162580e+03 2.463860e+02 -1.542868e+01 1.431648e+00 -1.747636e-01 6.172746e-01
 1.162580e+03 2.463860e+02 -1.522868e+01 1.431619e+00 -1.749587e-01 6.155439e-01
 1.162580e+03 2.463860e+02 -1.502868e+01 1.431589e+00 -1.751539e-01 6.138132e-01
 1.162580e+03 2.463860e+02 -1.482868e+01 1.431211e+00 -1.751790e-01 6.122372e-01
 1.162580e+03 2.463860e+02 -1.462868e+01 1.430296e+00 -1.749406e-01 6.109011e-01
 1.162580e+03 2.463860e+02 -1.442868e+01 1.429380e+00 -1.747023e-01 6.095650e-01
 1.162580e+03 2.463860e+02 -1.422868e+01 1.428465e+00 -1.744639e-01 6.082289e-01
 1.162580e+03 2.463860e+02 -1.402868e+01 1.427731e+00 -1.741211e-01 6.070879e-01
 1.162580e+03 2.463860e+02 -1.382868e+01 1.427138e+00 -1.736982e-01 6.060966e-01
 1.162580e+03 2.463860e+02 -1.362868e+01 1.426544e+00 -1.732753e-01 6.051053e-01
 1.162580e+03 2.463860e+02 -1.342868e+01 1.425951e+00 -1.728524e-01 6.041141e-01
 1.162580e+03 2.463860e+02 -1.322868e+01 1.425357e+00 -1.724295e-01 6.031228e-01
 1.162580e+03 2.463860e+02 -1.302868e+01 1.424764e+00 -1.720065e-01 6.021315e-01
 1.162580e+03 2.463860e+02 -1.282868e+01 1.424170e+00 -1.715836e-01 6.011402e-01
 1.162580e+03 2.463860e+02 -1.262868e+01 1.423577e+00 -1.711607e-01 6.001490e-01
 1.162580e+03 2.463860e+02 -1.242868e+01 1.422992e+00 -1.707632e-01 5.991059e-01
 1.162580e+03 2.463860e+02 -1.222868e+01 1.422445e+00 -1.704657e-01 5.978590e-01
 1.162580e+03 2.463860e+02 -1.202868e+01 1.421898e+00 -1.701682e-01 5.966121e-01
 1.162580e+03 2.463860e+02 -1.182868e+01 1.421350e+00 -1.698707e-01 5.953653e-01
 1.162580e+03 2.463860e+02 -1.162868e+01 1.420803e+00 -1.695731e-01 5.941184e-01
 1.162580e+03 2.463860e+02 -1.142868e+01 1.420255e+00 -1.692756e-01 5.928715e-01
 1.162580e+03 2.463860e+02 -1.122868e+01 1.419708e+00 -1.689781e-01 5.916246e-01
 1.162580e+03 2.463860e+02 -1.102868e+01 1.419160e+00 -1.686806e-01 5.903778e-01
 1.162580e+03 2.463860e+02 -1.082868e+01 1.418613e+00 -1.683831e-01 5.891309e-01
 1.162580e+03 2.463860e+02 -1.062868e+01 1.418066e+00 -1.680856e-01 5.878840e-01
 1.162580e+03 2.463860e+02 -1.042868e+01 1.417518e+00 -1.677881e-01 5.866371e-01
 1.162580e+03 2.463860e+02 -1.022868e+01 1.416971e+00 -1.674905e-01 5.853902e-01
 1.162580e+03 2.463860e+02 -1.002868e+01 1.416423e+00 -1.671930e-01 5.841433e-01
 1.162580e+03 2.463860e+02 -9.828685e+00 1.415876e+00 -1.668955e-01 5.828964e-01
 1.162580e+03 2.463860e+02 -9.628685e+00 1.415328e+00 -1.665980e-01 5.816496e-01
 1.162580e+03 2.463860e+02 -9.428685e+00 1.414781e+00 -1.663005e-01 5.804027e-01
 1.162580e+03 2.463860e+02 -9.228685e+00 1.414234e+00 -1.660030e-01 5.791558e-01
 1.162580e+03 2.463860e+02 -9.028685e+00 1.413686e+00 -1.657055e-01 5.779089e-01
 1.162580e+03 2.463860e+02 -8.828685e+00 1.413139e+00 -1.654079e-01 5.766621e-01
 1.162580e+03 2.463860e+02 -8.628685e+00 1.412591e+00 -1.651104e-01 5.754152e-01
 1.162580e+03 2.463860e+02 -8.428685e+00 1.412044e+00 -1.648129e-01 5.741683e-01
 1.162580e+03 2.463860e+02 -8.228685e+00 1.411574e+00 -1.645599e-01 5.730541e-01
 1.162580e+03 2.463860e+02 -8.028685e+00 1.411107e+00 -1.643087e-01 5.719454e-01
 1.162580e+03 2.463860e+02 -7.828685e+00 1.410640e+00 -1.640576e-01 5.708367e-01
 1.162580e+03 2.463860e+02 -7.628685e+00 1.410174e+00 -1.638064e-01 5.697280e-01
 1.162580e+03 2.463860e+02 -7.428685e+00 1.409707e+00 -1.635552e-01 5.686192e-01
 1.162580e+03 2.463860e+02 -7.228685e+00 1.409240e+00 -1.633040e-01 5.675105e-01
 1.162580e+03 2.463860e+02 -7.028685e+00 1.408773e+00 -1.630529e-01 5.664018e-01
 1.162580e+03 2.463860e+02 -6.828685e+00 1.408306e+00 -1.628017e-01 5.652931e-01
 1.162580e+03 2.463860e+02 -6.628685e+00 1.407839e+00 -1.625505e-01 5.641844e-01
 1.162580e+03 2.463860e+02 -6.428685e+00 1.407373e+00 -1.622994e-01 5.630756e-01
 1.162580e+03 2.463860e+02 -6.228685e+00 1.406906e+00 -1.620482e-01 5.619669e-01
 1.162580e+03 2.463860e+02 -6.028685e+00 1.406439e+00 -1.617970e-01 5.608582e-01
 1.162580e+03 2.463860e+02 -5.828685e+00 1.405972e+00 -1.615458e-01 5.597495e-01
 1.162580e+03 2.463860e+02 -5.628685e+00 1.405506e+00 -1.612947e-01 5.586408e-01
 1.162580e+03 2.463860e+02 -5.428685e+00 1.405039e+00 -1.610435e-01 5.575321e-01
 1.162580e+03 2.463860e+02 -5.228685e+00 1.404572e+00 -1.607923e-01 5.564233e-01
 1.162580e+03 2.463860e+02 -5.028685e+00 1.404105e+00 -1.605412e-01 5.553146e-01
 1.162580e+03 2.463860e+02 -4.828685e+00 1.403638e+00 -1.602900e-01 5.542059e-01
 1.162580e+03 2.463860e+02 -4.628685e+00 1.403172e+00 -1.600388e-01 5.530972e-01
 1.162580e+03 2.463860e+02 -4.428685e+00 1.402705e+00 -1.597876e-01 5.519884e-01
 1.162580e+03 2.463860e+02 -4.228685e+00 1.402238e+00 -1.595365e-01 5.508797e-01
 1.162580e+03 2.463860e+02 -4.028685e+00 1.401771e+00 -1.592853e-01 5.497710e-01
 1.162580e+03 2.463860e+02 -3.828685e+00 1.401304e+00 -1.590341e-01 5.486623e-01
 1.162580e+03 2.463860e+02 -3.628685e+00 1.400838e+00 -1.587829e-01 5.475536e-01
 1.162580e+03 2.463860e+02 -3.428685e+00 1.400371e+00 -1.585318e-01 5.464448e-01
 1.162580e+03 2.463860e+02 -3.228685e+00 1.399904e+00 -1.582806e-01 5.453361e-01
 1.162580e+03 2.463860e+02 -3.028685e+00 1.399439e+00 -1.580234e-01 5.442236e-01
 1.162580e+03 2.463860e+02 -2.828685e+00 1.398977e+00 -1.577566e-01 5.431053e-01
 1.162580e+03 2.463860e+02 -2.628685e+00 1.398515e+00 -1.574899e-01 5.419870e-01
 1.162580e+03 2.463860e+02 -2.428685e+00 1.398053e+00 -1.572232e-01 5.408686e-01
 1.162580e+03 2.463860e+02 -2.228685e+00 1.397591e+00 -1.569564e-01 5.397502e-01
 1.162580e+03 2.463860e+02 -2.028685e+00 1.397129e+00 -1.566897e-01 5.386319e-01
 1.162580e+03 2.463860e+02 -1.828685e+00 1.396667e+00 -1.564230e-01 5.375135e-01
 1.162580e+03 2.463860e+02 -1.628685e+00 1.396206e+00 -1.561562e-01 5.363952e-01
 1.162580e+03 2.463860e+02 -1.428685e+00 1.395744e+00 -1.558895e-01 5.352768e-01
 1.162580e+03 2.463860e+02 -1.228685e+00 1.395282e+00 -1.556228e-01 5.341585e-01
 1.162580e+03 2.463860e+02 -1.028685e+00 1.394820e+00 -1.553560e-01 5.330401e-01
 1.162580e+03 2.463860e+02 -8.286849e-01 1.394358e+00 -1.550893e-01 5.319218e-01
 1.162580e+03 2.463860e+02 -6.286848e-01 1.393896e+00 -1.548226e-01 5.308034e-01
 1.162580e+03 2.463860e+02 -4.286849e-01 1.393434e+00 -1.545559e-01 5.296850e-01
 1.162580e+03 2.463860e+02 -2.286848e-01 1.392972e+00 -1.542891e-01 5.285667e-01
ZONE T="014 case2b a12.0 adaptive_mesh_finest p1,wB,line2"
 1.181870e+03 2.463860e+02 -4.306073e+01 1.717993e+00 -5.854661e-01 1.001297e+00
 1.181870e+03 2.463860e+02 -4.286073e+01 1.711780e+00 -5.811016e-01 9.973679e-01
 1.181870e+03 2.463860e+02 -4.266073e+01 1.702619e+00 -5.757661e-01 9.951155e-01
 1.181870e+03 2.463860e+02 -4.246073e+01 1.701909e+00 -5.725125e-01 9.902183e-01
 1.181870e+03 2.463860e+02 -4.226073e+01 1.701563e+00 -5.701707e-01 9.840007e-01
 1.181870e+03 2.463860e+02 -4.206073e+01 1.700409e+00 -5.683918e-01 9.769175e-01
 1.181870e+03 2.463860e+02 -4.186073e+01 1.699255e+00 -5.666128e-01 9.698341e-01
 1.181870e+03 2.463860e+02 -4.166073e+01 1.698101e+00 -5.648339e-01 9.627510e-01
 1.181870e+03 2.463860e+02 -4.146073e+01 1.696734e+00 -5.632278e-01 9.564591e-01
 1.181870e+03 2.463860e+02 -4.126073e+01 1.694738e+00 -5.621339e-01 9.525117e-01
 1.181870e+03 2.463860e+02 -4.106073e+01 1.692742e+00 -5.610399e-01 9.485644e-01
 1.181870e+03 2.463860e+02 -4.086073e+01 1.690746e+00 -5.599460e-01 9.446171e-01
 1.181870e+03 2.463860e+02 -4.066073e+01 1.688750e+00 -5.588520e-01 9.406697e-01
 1.181870e+03 2.463860e+02 -4.046073e+01 1.686754e+00 -5.577580e-01 9.367224e-01
 1.181870e+03 2.463860e+02 -4.026073e+01 1.679488e+00 -5.558306e-01 9.272756e-01
 1.181870e+03 2.463860e+02 -4.006073e+01 1.671977e+00 -5.538642e-01 9.175717e-01
 1.181870e+03 2.463860e+02 -3.986073e+01 1.665934e+00 -5.524711e-01 9.089628e-01
 1.181870e+03 2.463860e+02 -3.966073e+01 1.665297e+00 -5.453969e-01 8.995068e-01
 1.181870e+03 2.463860e+02 -3.946073e+01 1.665191e+00 -5.364167e-01 8.891241e-01
 1.181870e+03 2.463860e+02 -3.926073e+01 1.659875e+00 -5.268251e-01 8.780879e-01
 1.181870e+03 2.463860e+02 -3.906073e+01 1.653140e+00 -5.173586e-01 8.676781e-01
 1.181870e+03 2.463860e+02 -3.886073e+01 1.646404e+00 -5.078921e-01 8.572683e-01
 1.181870e+03 2.463860e+02 -3.866073e+01 1.639587e+00 -4.984036e-01 8.464600e-01
 1.181870e+03 2.463860e+02 -3.846073e+01 1.632763e+00 -4.889134e-01 8.356212e-01
 1.181870e+03 2.463860e+02 -3.826073e+01 1.625940e+00 -4.794232e-01 8.247823e-01
 1.181870e+03 2.463860e+02 -3.806073e+01 1.619117e+00 -4.699330e-01 8.139434e-01
 1.181870e+03 2.463860e+02 -3.786073e+01 1.612294e+00 -4.604428e-01 8.031045e-01
 1.181870e+03 2.463860e+02 -3.766073e+01 1.605470e+00 -4.509526e-01 7.922656e-01
 1.181870e+03 2.463860e+02 -3.746073e+01 1.602585e+00 -4.412492e-01 7.847291e-01
 1.181870e+03 2.463860e+02 -3.726073e+01 1.598887e+00 -4.305179e-01 7.796201e-01
 1.181870e+03 2.463860e+02 -3.706073e+01 1.601243e+00 -4.203883e-01 7.760837e-01
 1.181870e+03 2.463860e+02 -3.686073e+01 1.609746e+00 -4.109560e-01 7.739253e-01
 1.181870e+03 2.463860e+02 -3.666073e+01 1.618371e+00 -4.014770e-01 7.718063e-01
 1.181870e+03 2.463860e+02 -3.646073e+01 1.627066e+00 -3.918330e-01 7.692891e-01
 1.181870e+03 2.463860e+02 -3.626073e+01 1.639354e+00 -3.816343e-01 7.677206e-01
 1.181870e+03 2.463860e+02 -3.606073e+01 1.652600e+00 -3.716954e-01 7.661717e-01
 1.181870e+03 2.463860e+02 -3.586073e+01 1.665845e+00 -3.617565e-01 7.646229e-01
 1.181870e+03 2.463860e+02 -3.566073e+01 1.679091e+00 -3.518176e-01 7.630741e-01
 1.181870e+03 2.463860e+02 -3.546073e+01 1.692336e+00 -3.418787e-01 7.615253e-01
 1.181870e+03 2.463860e+02 -3.526073e+01 1.705527e+00 -3.319762e-01 7.599699e-01
 1.181870e+03 2.463860e+02 -3.506073e+01 1.707899e+00 -3.292186e-01 7.571339e-01
 1.181870e+03 2.463860e+02 -3.486073e+01 1.710272e+00 -3.264610e-01 7.542979e-01
 1.181870e+03 2.463860e+02 -3.466073e+01 1.712644e+00 -3.237035e-01 7.514619e-01
 1.181870e+03 2.463860e+02 -3.446073e+01 1.715017e+00 -3.209459e-01 7.486259e-01
 1.181870e+03 2.463860e+02 -3.426073e+01 1.717390e+00 -3.181883e-01 7.457899e-01
 1.181870e+03 2.463860e+02 -3.406073e+01 1.719762e+00 -3.154307e-01 7.429538e-01
 1.181870e+03 2.463860e+02 -3.386073e+01 1.722135e+00 -3.126731e-01 7.401179e-01
 1.181870e+03 2.463860e+02 -3.366073e+01 1.724507e+00 -3.099156e-01 7.372818e-01
 1.181870e+03 2.463860e+02 -3.346073e+01 1.727954e+00 -3.074539e-01 7.350042e-01
 1.181870e+03 2.463860e+02 -3.326073e+01 1.729296e+00 -3.061417e-01 7.321297e-01
 1.181870e+03 2.463860e+02 -3.306073e+01 1.729494e+00 -3.053881e-01 7.289114e-01
 1.181870e+03 2.463860e+02 -3.286073e+01 1.729708e+00 -3.044763e-01 7.256134e-01
 1.181870e+03 2.463860e+02 -3.266073e+01 1.726555e+00 -3.050312e-01 7.225882e-01
 1.181870e+03 2.463860e+02 -3.246073e+01 1.723125e+00 -3.056660e-01 7.194948e-01
 1.181870e+03 2.463860e+02 -3.226073e+01 1.719694e+00 -3.063007e-01 7.164014e-01
 1.181870e+03 2.463860e+02 -3.206073e+01 1.716263e+00 -3.069355e-01 7.133080e-01
 1.181870e+03 2.463860e+02 -3.186073e+01 1.712680e+00 -3.074571e-01 7.100986e-01
 1.181870e+03 2.463860e+02 -3.166073e+01 1.708979e+00 -3.078904e-01 7.067986e-01
 1.181870e+03 2.463860e+02 -3.146073e+01 1.705278e+00 -3.083237e-01 7.034986e-01
 1.181870e+03 2.463860e+02 -3.126073e+01 1.701576e+00 -3.087570e-01 7.001987e-01
 1.181870e+03 2.463860e+02 -3.106073e+01 1.697875e+00 -3.091903e-01 6.968987e-01
 1.181870e+03 2.463860e+02 -3.086073e+01 1.694174e+00 -3.096237e-01 6.935987e-01
 1.181870e+03 2.463860e+02 -3.066073e+01 1.690334e+00 -3.100937e-01 6.902932e-01
 1.181870e+03 2.463860e+02 -3.046073e+01 1.686460e+00 -3.105727e-01 6.869864e-01
 1.181870e+03 2.463860e+02 -3.026073e+01 1.682585e+00 -3.110519e-01 6.836795e-01
 1.181870e+03 2.463860e+02 -3.006073e+01 1.678711e+00 -3.115310e-01 6.803727e-01
 1.181870e+03 2.463860e+02 -2.986073e+01 1.674837e+00 -3.120100e-01 6.770659e-01
 1.181870e+03 2.463860e+02 -2.966073e+01 1.670963e+00 -3.124891e-01 6.737590e-01