#++++++++++++++++++++++++++++++++++++++++++++++++++++++++++++++++++++++++++++++++++++++++++++++++++++++++++++++++++++++++++++++++++++++
#
#   HiLiftPW-2 Velocity DATA SUBMITTAL FORM Case 2b (Version 1), March 2013
#
#   CASE 2 is a required Reynolds number study at 8 different angles-of-attack each.
#   Config 4 (including Slat Tracks and Flap Track Fairings) should be used.
#   A comparable *Medium* mesh density from the Grid Convergence Study should be used.
#   The required parts of this case (Case 2a and 2b) should be run FULLY TURBULENT (no forced transition).
#   An optional part of this case (Case 2c) can be run with transition specified or predicted.
#
#   This data file only asks for a subset of information to be reported: AoA=7, 18.5, and 21 only.
#
#       NOMENCLATURE:
#              ALPHA:	Angle of attack, deg.
#                 FT:   Fully Turbulent
#                 TR:   Transition specified or computed
#              X,Y,Z:   Cartesian coordinates, in mm
#             u/Uinf:   Velocity component in X-direction relative to freestream
#             v/Uinf:   Velocity component in Y-direction relative to freestream
#             w/Uinf:   Velocity component in Z-direction relative to freestream
#
#                XXX:	Participant ID (To be assigned by HiLiftPW-1 workshop committee)
#
#    FLOW CONDITIONS CASE 2b:
#                 Mach Number: 0.175
#             Reynolds Number: 15.1 million (based on MAC)
#             Freestream Temp: 114.0 K (205.2 R)
#  Freestream Static Pressure: 295000 Pa (42.7861 psi)
#
#              NOTES: 1. All numerical data fields can be free-formatted
#                     2. Please use at least 3 decimal places in the numerical values for velocity
#                     3. If optional data is NOT provided, please fill data fields with a numerical value of "-999" 
#                     4. Results are requested for both medium and fine grids
#                     5. There are no experimental velocity data for these high-Re conditions
#
#++++++++++++++++++++++++++++++++++++++++++++++++++++++++++++++++++++++++++++++++++++++++++++++++++++++++++++++++++++++++++++++++++++++

TITLE = "007.2"

VARIABLES = "X" "Y" "Z" "u/Uinf" "v/Uinf" "w/Uinf"

#-----------------------------------------------------------------------------------
# ALPHA 7:
#-----------------------------------------------------------------------------------
ZONE T="007.2 case2b a7 Medium, p1, wB, line 1"
 1.162579956E+03 2.463860016E+02 -6.002868271E+01 5.813609958E-01 1.492393911E-01 9.262219667E-01
 1.162579956E+03 2.463860016E+02 -5.982868195E+01 6.088947058E-01 1.453725696E-01 9.608377814E-01
 1.162579956E+03 2.463860016E+02 -5.962868500E+01 6.301369071E-01 1.403926462E-01 9.842600822E-01
 1.162579956E+03 2.463860016E+02 -5.942868423E+01 6.464470029E-01 1.342892796E-01 9.989244342E-01
 1.162579956E+03 2.463860016E+02 -5.922868347E+01 6.590816975E-01 1.275670528E-01 1.007183671E+00
 1.162579956E+03 2.463860016E+02 -5.902868652E+01 6.687160134E-01 1.203854084E-01 1.010306239E+00
 1.162579956E+03 2.463860016E+02 -5.882868576E+01 6.761378050E-01 1.129239500E-01 1.009615541E+00
 1.162579956E+03 2.463860016E+02 -5.862868500E+01 6.822463274E-01 1.041644514E-01 1.006834865E+00
 1.162579956E+03 2.463860016E+02 -5.842868423E+01 6.870050430E-01 9.517664462E-02 1.001812816E+00
 1.162579956E+03 2.463860016E+02 -5.822868729E+01 6.909077168E-01 8.606810123E-02 9.953755140E-01
 1.162579956E+03 2.463860016E+02 -5.802868271E+01 6.938601732E-01 7.689265162E-02 9.874052405E-01
 1.162579956E+03 2.463860016E+02 -5.782868195E+01 6.965528131E-01 6.772847474E-02 9.790412188E-01
 1.162579956E+03 2.463860016E+02 -5.762868500E+01 6.988888979E-01 5.863163993E-02 9.701585174E-01
 1.162579956E+03 2.463860016E+02 -5.742868423E+01 7.010004520E-01 4.952597991E-02 9.610257149E-01
 1.162579956E+03 2.463860016E+02 -5.722868347E+01 7.029077411E-01 4.043951258E-02 9.515380263E-01
 1.162579956E+03 2.463860016E+02 -5.702868652E+01 7.046697140E-01 3.133589029E-02 9.422081709E-01
 1.162579956E+03 2.463860016E+02 -5.682868576E+01 7.064306140E-01 2.243188024E-02 9.325111508E-01
 1.162579956E+03 2.463860016E+02 -5.662868500E+01 7.077464461E-01 1.355369575E-02 9.229518771E-01
 1.162579956E+03 2.463860016E+02 -5.642868423E+01 7.084721923E-01 4.989300389E-03 9.129067659E-01
 1.162579956E+03 2.463860016E+02 -5.622868729E+01 7.091792822E-01 -3.516122699E-03 9.029289484E-01
 1.162579956E+03 2.463860016E+02 -5.602868652E+01 7.099053860E-01 -1.172060147E-02 8.932325840E-01
 1.162579956E+03 2.463860016E+02 -5.582868195E+01 7.107411027E-01 -1.978548802E-02 8.833126426E-01
 1.162579956E+03 2.463860016E+02 -5.562868500E+01 7.114978433E-01 -2.776945755E-02 8.736945391E-01
 1.162579956E+03 2.463860016E+02 -5.542868423E+01 7.124273181E-01 -3.542475030E-02 8.641210794E-01
 1.162579956E+03 2.463860016E+02 -5.522868347E+01 7.133601308E-01 -4.273872823E-02 8.547546268E-01
 1.162579956E+03 2.463860016E+02 -5.502868271E+01 7.142935395E-01 -5.010590702E-02 8.453567028E-01
 1.162579956E+03 2.463860016E+02 -5.482868576E+01 7.153418064E-01 -5.728159472E-02 8.360060453E-01
 1.162579956E+03 2.463860016E+02 -5.462868500E+01 7.164034247E-01 -6.389477849E-02 8.269662261E-01
 1.162579956E+03 2.463860016E+02 -5.442868423E+01 7.174507976E-01 -7.048013061E-02 8.179691434E-01
 1.162579956E+03 2.463860016E+02 -5.422868729E+01 7.184271812E-01 -7.709196210E-02 8.089182377E-01
 1.162579956E+03 2.463860016E+02 -5.402868652E+01 7.143542171E-01 -8.482057601E-02 7.934539318E-01
 1.162579956E+03 2.463860016E+02 -5.382868576E+01 7.090989351E-01 -9.245378524E-02 7.768748403E-01
 1.162579956E+03 2.463860016E+02 -5.362868500E+01 7.038418651E-01 -1.000895649E-01 7.602902055E-01
 1.162579956E+03 2.463860016E+02 -5.342868423E+01 7.019748092E-01 -1.060737595E-01 7.492156625E-01
 1.162579956E+03 2.463860016E+02 -5.322868347E+01 7.032755017E-01 -1.112105995E-01 7.413740158E-01
 1.162579956E+03 2.463860016E+02 -5.302868271E+01 7.050260901E-01 -1.157398224E-01 7.342172861E-01
 1.162579956E+03 2.463860016E+02 -5.282868576E+01 7.080545425E-01 -1.177873984E-01 7.273806334E-01
 1.162579956E+03 2.463860016E+02 -5.262868500E+01 7.112232447E-01 -1.201941073E-01 7.209266424E-01
 1.162579956E+03 2.463860016E+02 -5.242868423E+01 7.151090503E-01 -1.244431213E-01 7.164453268E-01
 1.162579956E+03 2.463860016E+02 -5.222868729E+01 7.189960480E-01 -1.286934763E-01 7.119624615E-01
 1.162579956E+03 2.463860016E+02 -5.202868652E+01 7.228842974E-01 -1.329451799E-01 7.074782848E-01
 1.162579956E+03 2.463860016E+02 -5.182868576E+01 7.267737985E-01 -1.371982396E-01 7.029926181E-01
 1.162579956E+03 2.463860016E+02 -5.162868500E+01 7.308673859E-01 -1.371405572E-01 6.984533072E-01
 1.162579956E+03 2.463860016E+02 -5.142868423E+01 7.349785566E-01 -1.367332935E-01 6.939085722E-01
 1.162579956E+03 2.463860016E+02 -5.122868347E+01 7.390904427E-01 -1.363259554E-01 6.893629432E-01
 1.162579956E+03 2.463860016E+02 -5.102868271E+01 7.432031631E-01 -1.359185278E-01 6.848163605E-01
 1.162579956E+03 2.463860016E+02 -5.082868576E+01 7.473168969E-01 -1.355110109E-01 6.802688241E-01
 1.162579956E+03 2.463860016E+02 -5.062868500E+01 7.514314651E-01 -1.351034194E-01 6.757202148E-01
 1.162579956E+03 2.463860016E+02 -5.042868423E+01 7.555354238E-01 -1.347810328E-01 6.714299321E-01
 1.162579956E+03 2.463860016E+02 -5.022868347E+01 7.598293424E-01 -1.341856271E-01 6.681768298E-01
 1.162579956E+03 2.463860016E+02 -5.002868652E+01 7.646020055E-01 -1.325853169E-01 6.660670638E-01
 1.162579956E+03 2.463860016E+02 -4.982868576E+01 7.765325904E-01 -1.281195581E-01 6.660520434E-01
 1.162579956E+03 2.463860016E+02 -4.962868500E+01 7.928454280E-01 -1.218994781E-01 6.673197150E-01
 1.162579956E+03 2.463860016E+02 -4.942868805E+01 8.110502362E-01 -1.159896851E-01 6.683222651E-01
 1.162579956E+03 2.463860016E+02 -4.922868347E+01 8.301776648E-01 -1.102299839E-01 6.691958904E-01
 1.162579956E+03 2.463860016E+02 -4.902868271E+01 8.517148495E-01 -1.025161594E-01 6.706153154E-01
 1.162579956E+03 2.463860016E+02 -4.882868195E+01 8.812056184E-01 -9.190998971E-02 6.774544120E-01
 1.162579956E+03 2.463860016E+02 -4.862868500E+01 9.199867249E-01 -8.150619268E-02 6.924127936E-01
 1.162579956E+03 2.463860016E+02 -4.842868423E+01 9.439430237E-01 -7.403451204E-02 6.989700794E-01
 1.162579956E+03 2.463860016E+02 -4.822868347E+01 9.678901434E-01 -6.656567007E-02 7.055249214E-01
 1.162579956E+03 2.463860016E+02 -4.802868652E+01 9.913232923E-01 -5.923542008E-02 7.119028568E-01
 1.162579956E+03 2.463860016E+02 -4.782868576E+01 1.020264268E+00 -5.247206613E-02 7.236136794E-01
 1.162579956E+03 2.463860016E+02 -4.762868500E+01 1.050830603E+00 -4.569142312E-02 7.365890145E-01
 1.162579956E+03 2.463860016E+02 -4.742868805E+01 1.078092337E+00 -3.998283669E-02 7.482588291E-01
 1.162579956E+03 2.463860016E+02 -4.722868729E+01 1.099482059E+00 -3.655026853E-02 7.573056817E-01
 1.162579956E+03 2.463860016E+02 -4.702868271E+01 1.120853543E+00 -3.331979737E-02 7.661826015E-01
 1.162579956E+03 2.463860016E+02 -4.682868195E+01 1.133925438E+00 -3.336531296E-02 7.711378932E-01
 1.162579956E+03 2.463860016E+02 -4.662868500E+01 1.145869374E+00 -3.423222154E-02 7.750533223E-01
 1.162579956E+03 2.463860016E+02 -4.642868423E+01 1.154612422E+00 -3.511370346E-02 7.761409283E-01
 1.162579956E+03 2.463860016E+02 -4.622868347E+01 1.162916541E+00 -3.597020358E-02 7.769551277E-01
 1.162579956E+03 2.463860016E+02 -4.602868652E+01 1.173326254E+00 -3.651029989E-02 7.779880166E-01
 1.162579956E+03 2.463860016E+02 -4.582868576E+01 1.183734775E+00 -3.705033287E-02 7.790207267E-01
 1.162579956E+03 2.463860016E+02 -4.562868500E+01 1.190297961E+00 -3.772636876E-02 7.788992524E-01
 1.162579956E+03 2.463860016E+02 -4.542868423E+01 1.195682049E+00 -3.844413906E-02 7.784239650E-01
 1.162579956E+03 2.463860016E+02 -4.522868729E+01 1.201066494E+00 -3.916193172E-02 7.779486179E-01
 1.162579956E+03 2.463860016E+02 -4.502868652E+01 1.205749154E+00 -3.995110095E-02 7.766827345E-01
 1.162579956E+03 2.463860016E+02 -4.482868195E+01 1.209988713E+00 -4.091905057E-02 7.749798894E-01
 1.162579956E+03 2.463860016E+02 -4.462868500E+01 1.213726521E+00 -4.240441322E-02 7.729308009E-01
 1.162579956E+03 2.463860016E+02 -4.442868423E+01 1.217464805E+00 -4.388990626E-02 7.708815336E-01
 1.162579956E+03 2.463860016E+02 -4.422868347E+01 1.220824361E+00 -4.569664970E-02 7.687134743E-01
 1.162579956E+03 2.463860016E+02 -4.402868271E+01 1.223814964E+00 -4.781654850E-02 7.664296627E-01
 1.162579956E+03 2.463860016E+02 -4.382868576E+01 1.226615548E+00 -4.967186972E-02 7.643651962E-01
 1.162579956E+03 2.463860016E+02 -4.362868500E+01 1.229181886E+00 -5.120158568E-02 7.625705004E-01
 1.162579956E+03 2.463860016E+02 -4.342868423E+01 1.231748581E+00 -5.273146555E-02 7.607756257E-01
 1.162579956E+03 2.463860016E+02 -4.322868729E+01 1.234315515E+00 -5.426150188E-02 7.589805722E-01
 1.162579956E+03 2.463860016E+02 -4.302868652E+01 1.236305833E+00 -5.548715964E-02 7.572185993E-01
 1.162579956E+03 2.463860016E+02 -4.282868576E+01 1.238136888E+00 -5.658406764E-02 7.553487420E-01
 1.162579956E+03 2.463860016E+02 -4.262868500E+01 1.239967942E+00 -5.768105388E-02 7.534786463E-01
 1.162579956E+03 2.463860016E+02 -4.242868423E+01 1.242022157E+00 -5.891052261E-02 7.516239882E-01
 1.162579956E+03 2.463860016E+02 -4.222868347E+01 1.244698405E+00 -6.050915644E-02 7.498124242E-01
 1.162579956E+03 2.463860016E+02 -4.202868271E+01 1.247374773E+00 -6.210793555E-02 7.480007410E-01
 1.162579956E+03 2.463860016E+02 -4.182868576E+01 1.250051379E+00 -6.370685250E-02 7.461888790E-01
 1.162579956E+03 2.463860016E+02 -4.162868500E+01 1.252728343E+00 -6.530591100E-02 7.443768978E-01
 1.162579956E+03 2.463860016E+02 -4.142868423E+01 1.254797935E+00 -6.649953127E-02 7.423458099E-01
 1.162579956E+03 2.463860016E+02 -4.122868729E+01 1.256261826E+00 -6.728867441E-02 7.400960922E-01
 1.162579956E+03 2.463860016E+02 -4.102868652E+01 1.257725716E+00 -6.807783991E-02 7.378464937E-01
 1.162579956E+03 2.463860016E+02 -4.082868576E+01 1.259189725E+00 -6.886703521E-02 7.355967164E-01
 1.162579956E+03 2.463860016E+02 -4.062868500E+01 1.260653734E+00 -6.965626031E-02 7.333469391E-01
 1.162579956E+03 2.463860016E+02 -4.042868423E+01 1.262117743E+00 -7.044551522E-02 7.310969830E-01
 1.162579956E+03 2.463860016E+02 -4.022868347E+01 1.263581872E+00 -7.123478502E-02 7.288470268E-01
 1.162579956E+03 2.463860016E+02 -4.002868271E+01 1.265046000E+00 -7.202408463E-02 7.265970707E-01
 1.162579956E+03 2.463860016E+02 -3.982868576E+01 1.266510129E+00 -7.281339169E-02 7.243469357E-01
 1.162579956E+03 2.463860016E+02 -3.962868500E+01 1.268152595E+00 -7.361920178E-02 7.220778465E-01
 1.162579956E+03 2.463860016E+02 -3.942868423E+01 1.269630909E+00 -7.459627837E-02 7.202007771E-01
 1.162579956E+03 2.463860016E+02 -3.922868347E+01 1.271382451E+00 -7.576388866E-02 7.183998227E-01
 1.162579956E+03 2.463860016E+02 -3.902868652E+01 1.272838950E+00 -7.683585584E-02 7.163026333E-01
 1.162579956E+03 2.463860016E+02 -3.882868576E+01 1.274142742E+00 -7.785827667E-02 7.140522003E-01
 1.162579956E+03 2.463860016E+02 -3.862868500E+01 1.275519490E+00 -7.891178131E-02 7.118119001E-01
 1.162579956E+03 2.463860016E+02 -3.842868805E+01 1.276976943E+00 -7.999956608E-02 7.095828056E-01
 1.162579956E+03 2.463860016E+02 -3.822868347E+01 1.278548121E+00 -8.118546754E-02 7.071061730E-01
 1.162579956E+03 2.463860016E+02 -3.802868271E+01 1.280157447E+00 -8.240428567E-02 7.045465708E-01
 1.162579956E+03 2.463860016E+02 -3.782868195E+01 1.281766772E+00 -8.362311125E-02 7.019868493E-01
 1.162579956E+03 2.463860016E+02 -3.762868500E+01 1.283376217E+00 -8.484196663E-02 6.994271874E-01
 1.162579956E+03 2.463860016E+02 -3.742868423E+01 1.284985542E+00 -8.606084436E-02 6.968674064E-01
 1.162579956E+03 2.463860016E+02 -3.722868347E+01 1.286115646E+00 -8.705225587E-02 6.945548654E-01
 1.162579956E+03 2.463860016E+02 -3.702868652E+01 1.286803961E+00 -8.783403784E-02 6.924701929E-01
 1.162579956E+03 2.463860016E+02 -3.682868576E+01 1.287492156E+00 -8.861579001E-02 6.903855205E-01
 1.162579956E+03 2.463860016E+02 -3.662868500E+01 1.288180351E+00 -8.939750493E-02 6.883009672E-01
 1.162579956E+03 2.463860016E+02 -3.642868805E+01 1.289173365E+00 -9.018824995E-02 6.862458587E-01
 1.162579956E+03 2.463860016E+02 -3.622868729E+01 1.289976001E+00 -9.081120044E-02 6.839388609E-01
 1.162579956E+03 2.463860016E+02 -3.602868271E+01 1.290755749E+00 -9.141695499E-02 6.816059351E-01
 1.162579956E+03 2.463860016E+02 -3.582868195E+01 1.291535378E+00 -9.202270210E-02 6.792730689E-01
 1.162579956E+03 2.463860016E+02 -3.562868500E+01 1.292315006E+00 -9.262841195E-02 6.769403219E-01
 1.162579956E+03 2.463860016E+02 -3.542868423E+01 1.293094516E+00 -9.323411435E-02 6.746076345E-01
 1.162579956E+03 2.463860016E+02 -3.522868347E+01 1.293874145E+00 -9.383980185E-02 6.722749472E-01
 1.162579956E+03 2.463860016E+02 -3.502868652E+01 1.294578552E+00 -9.437590092E-02 6.698983908E-01
 1.162579956E+03 2.463860016E+02 -3.482868576E+01 1.294968486E+00 -9.462051094E-02 6.673378348E-01
 1.162579956E+03 2.463860016E+02 -3.462868500E+01 1.295358419E+00 -9.486510605E-02 6.647773385E-01
 1.162579956E+03 2.463860016E+02 -3.442868423E+01 1.296154261E+00 -9.556224197E-02 6.626451612E-01
 1.162579956E+03 2.463860016E+02 -3.422868729E+01 1.297029972E+00 -9.635803849E-02 6.605970263E-01
 1.162579956E+03 2.463860016E+02 -3.402868652E+01 1.297694683E+00 -9.699582309E-02 6.583258510E-01
 1.162579956E+03 2.463860016E+02 -3.382868195E+01 1.298359275E+00 -9.763361514E-02 6.560547352E-01
 1.162579956E+03 2.463860016E+02 -3.362868500E+01 1.299024105E+00 -9.827136248E-02 6.537837982E-01
 1.162579956E+03 2.463860016E+02 -3.342868423E+01 1.299640298E+00 -9.879247099E-02 6.515780091E-01
 1.162579956E+03 2.463860016E+02 -3.322868347E+01 1.300236702E+00 -9.926564246E-02 6.493991017E-01
 1.162579956E+03 2.463860016E+02 -3.302868271E+01 1.300833106E+00 -9.973879158E-02 6.472201943E-01
 1.162579956E+03 2.463860016E+02 -3.282868576E+01 1.301429272E+00 -1.002119258E-01 6.450414062E-01
 1.162579956E+03 2.463860016E+02 -3.262868500E+01 1.302025557E+00 -1.006850600E-01 6.428626180E-01
 1.162579956E+03 2.463860016E+02 -3.242868423E+01 1.302621961E+00 -1.011581719E-01 6.406839490E-01
 1.162579956E+03 2.463860016E+02 -3.222868729E+01 1.303193927E+00 -1.015995294E-01 6.385244131E-01
 1.162579956E+03 2.463860016E+02 -3.202868652E+01 1.303483725E+00 -1.016711146E-01 6.365874410E-01
 1.162579956E+03 2.463860016E+02 -3.182868576E+01 1.303773284E+00 -1.017426923E-01 6.346504688E-01
 1.162579956E+03 2.463860016E+02 -3.162868309E+01 1.304172635E+00 -1.018083543E-01 6.328420043E-01
 1.162579956E+03 2.463860016E+02 -3.142868423E+01 1.304631710E+00 -1.018707603E-01 6.311035752E-01
 1.162579956E+03 2.463860016E+02 -3.122868538E+01 1.305090785E+00 -1.019331589E-01 6.293652654E-01
 1.162579956E+03 2.463860016E+02 -3.102868462E+01 1.305532217E+00 -1.019903794E-01 6.276405454E-01
 1.162579956E+03 2.463860016E+02 -3.082868385E+01 1.305936694E+00 -1.020366699E-01 6.259444356E-01
 1.162579956E+03 2.463860016E+02 -3.062868500E+01 1.306341171E+00 -1.020829752E-01 6.242483854E-01
 1.162579956E+03 2.463860016E+02 -3.042868614E+01 1.306745529E+00 -1.021292731E-01 6.225523949E-01
 1.162579956E+03 2.463860016E+02 -3.022868538E+01 1.307153702E+00 -1.021932885E-01 6.208673716E-01
 1.162579956E+03 2.463860016E+02 -3.002868462E+01 1.307562232E+00 -1.022587568E-01 6.191833615E-01
 1.162579956E+03 2.463860016E+02 -2.982868385E+01 1.308090925E+00 -1.025139391E-01 6.169843078E-01
 1.162579956E+03 2.463860016E+02 -2.962868500E+01 1.308668733E+00 -1.028465331E-01 6.145753264E-01
 1.162579956E+03 2.463860016E+02 -2.942868423E+01 1.309246421E+00 -1.031791046E-01 6.121664047E-01
 1.162579956E+03 2.463860016E+02 -2.922868538E+01 1.309604645E+00 -1.033731326E-01 6.098311543E-01
 1.162579956E+03 2.463860016E+02 -2.902868652E+01 1.309929609E+00 -1.035460383E-01 6.075073481E-01
 1.162579956E+03 2.463860016E+02 -2.882868385E+01 1.310254335E+00 -1.037189290E-01 6.051836014E-01
 1.162579956E+03 2.463860016E+02 -2.862868500E+01 1.310490727E+00 -1.040060967E-01 6.030848622E-01
 1.162579956E+03 2.463860016E+02 -2.842868423E+01 1.310669541E+00 -1.043679267E-01 6.011331677E-01
 1.162579956E+03 2.463860016E+02 -2.822868538E+01 1.310848355E+00 -1.047297269E-01 5.991814733E-01
 1.162579956E+03 2.463860016E+02 -2.802868652E+01 1.311027050E+00 -1.050915197E-01 5.972298980E-01
 1.162579956E+03 2.463860016E+02 -2.782868385E+01 1.311204195E+00 -1.054528952E-01 5.952768326E-01
 1.162579956E+03 2.463860016E+02 -2.762868500E+01 1.311313868E+00 -1.057974398E-01 5.932579637E-01
 1.162579956E+03 2.463860016E+02 -2.742868423E+01 1.311423421E+00 -1.061419770E-01 5.912392139E-01
 1.162579956E+03 2.463860016E+02 -2.722868538E+01 1.311532974E+00 -1.064864770E-01 5.892205238E-01
 1.162579956E+03 2.463860016E+02 -2.702868462E+01 1.311529875E+00 -1.067411155E-01 5.872727633E-01
 1.162579956E+03 2.463860016E+02 -2.682868576E+01 1.311478138E+00 -1.069572046E-01 5.853555202E-01
 1.162579956E+03 2.463860016E+02 -2.662868500E+01 1.311426520E+00 -1.071732864E-01 5.834383965E-01
 1.162579956E+03 2.463860016E+02 -2.642868423E+01 1.311447978E+00 -1.074243039E-01 5.816949010E-01
 1.162579956E+03 2.463860016E+02 -2.622868538E+01 1.311496735E+00 -1.076883227E-01 5.800160766E-01
 1.162579956E+03 2.463860016E+02 -2.602868462E+01 1.311545491E+00 -1.079523191E-01 5.783373713E-01
 1.162579956E+03 2.463860016E+02 -2.582868576E+01 1.311594009E+00 -1.082163006E-01 5.766587257E-01
 1.162579956E+03 2.463860016E+02 -2.562868500E+01 1.311642766E+00 -1.084802747E-01 5.749801397E-01
 1.162579956E+03 2.463860016E+02 -2.542868423E+01 1.311691403E+00 -1.087442264E-01 5.733016729E-01
 1.162579956E+03 2.463860016E+02 -2.522868538E+01 1.311740398E+00 -1.090050638E-01 5.716287494E-01
 1.162579956E+03 2.463860016E+02 -2.502868462E+01 1.311762691E+00 -1.091754511E-01 5.699734688E-01
 1.162579956E+03 2.463860016E+02 -2.482868576E+01 1.311724544E+00 -1.092325523E-01 5.682387352E-01
 1.162579956E+03 2.463860016E+02 -2.462868309E+01 1.311686516E+00 -1.092896610E-01 5.665041804E-01
 1.162579956E+03 2.463860016E+02 -2.442868423E+01 1.311648607E+00 -1.093467474E-01 5.647697449E-01
 1.162579956E+03 2.463860016E+02 -2.422868538E+01 1.311610460E+00 -1.094038412E-01 5.630353689E-01
 1.162579956E+03 2.463860016E+02 -2.402868462E+01 1.311513424E+00 -1.093732789E-01 5.613464713E-01
 1.162579956E+03 2.463860016E+02 -2.382868576E+01 1.311365366E+00 -1.092762426E-01 5.596916080E-01
 1.162579956E+03 2.463860016E+02 -2.362868500E+01 1.311128616E+00 -1.091339812E-01 5.580558181E-01
 1.162579956E+03 2.463860016E+02 -2.342868423E+01 1.310891986E+00 -1.089917272E-01 5.564201474E-01
 1.162579956E+03 2.463860016E+02 -2.322868538E+01 1.310655117E+00 -1.088494807E-01 5.547845364E-01
 1.162579956E+03 2.463860016E+02 -2.302868462E+01 1.310418487E+00 -1.087072566E-01 5.531491041E-01
 1.162579956E+03 2.463860016E+02 -2.282868576E+01 1.310181856E+00 -1.085650250E-01 5.515137315E-01
 1.162579956E+03 2.463860016E+02 -2.262868500E+01 1.309945226E+00 -1.084228233E-01 5.498785973E-01
 1.162579956E+03 2.463860016E+02 -2.242868423E+01 1.309708595E+00 -1.082806215E-01 5.482434630E-01
 1.162579956E+03 2.463860016E+02 -2.222868347E+01 1.309472084E+00 -1.081384271E-01 5.466085076E-01
 1.162579956E+03 2.463860016E+02 -2.202868462E+01 1.309424281E+00 -1.081507653E-01 5.450325012E-01
 1.162579956E+03 2.463860016E+02 -2.182868576E+01 1.309520960E+00 -1.082812399E-01 5.435016155E-01
 1.162579956E+03 2.463860016E+02 -2.162868500E+01 1.309617639E+00 -1.084117070E-01 5.419708490E-01
 1.162579956E+03 2.463860016E+02 -2.142868614E+01 1.309750915E+00 -1.085676625E-01 5.403404236E-01
 1.162579956E+03 2.463860016E+02 -2.122868347E+01 1.309910178E+00 -1.087417528E-01 5.386393070E-01
 1.162579956E+03 2.463860016E+02 -2.102868462E+01 1.310069442E+00 -1.089158058E-01 5.369382501E-01
 1.162579956E+03 2.463860016E+02 -2.082868385E+01 1.310194016E+00 -1.089859828E-01 5.351338983E-01
 1.162579956E+03 2.463860016E+02 -2.062868500E+01 1.310305238E+00 -1.090158597E-01 5.332896709E-01
 1.162579956E+03 2.463860016E+02 -2.042868614E+01 1.310344219E+00 -1.090154350E-01 5.315064192E-01
 1.162579956E+03 2.463860016E+02 -2.022868347E+01 1.310185671E+00 -1.089322865E-01 5.298897028E-01
 1.162579956E+03 2.463860016E+02 -2.002868462E+01 1.310027242E+00 -1.088491455E-01 5.282731652E-01
 1.162579956E+03 2.463860016E+02 -1.982868385E+01 1.309868813E+00 -1.087659970E-01 5.266567469E-01
 1.162579956E+03 2.463860016E+02 -1.962868500E+01 1.309710383E+00 -1.086828709E-01 5.250404477E-01
 1.162579956E+03 2.463860016E+02 -1.942868614E+01 1.309551954E+00 -1.085997373E-01 5.234243274E-01
 1.162579956E+03 2.463860016E+02 -1.922868538E+01 1.309393525E+00 -1.085166335E-01 5.218082666E-01
 1.162579956E+03 2.463860016E+02 -1.902868462E+01 1.309211016E+00 -1.084398106E-01 5.203035474E-01
 1.162579956E+03 2.463860016E+02 -1.882868385E+01 1.308985233E+00 -1.083743870E-01 5.189996362E-01
 1.162579956E+03 2.463860016E+02 -1.862868500E+01 1.308759332E+00 -1.083089560E-01 5.176957846E-01
 1.162579956E+03 2.463860016E+02 -1.842868423E+01 1.308408856E+00 -1.081099063E-01 5.164197683E-01
 1.162579956E+03 2.463860016E+02 -1.822868538E+01 1.307976961E+00 -1.078236997E-01 5.151619315E-01
 1.162579956E+03 2.463860016E+02 -1.802868462E+01 1.307545304E+00 -1.075375229E-01 5.139041543E-01
 1.162579956E+03 2.463860016E+02 -1.782868385E+01 1.307113528E+00 -1.072513536E-01 5.126464367E-01
 1.162579956E+03 2.463860016E+02 -1.762868500E+01 1.306719065E+00 -1.070132330E-01 5.113448501E-01
 1.162579956E+03 2.463860016E+02 -1.742868423E+01 1.306397676E+00 -1.068647057E-01 5.099288225E-01
 1.162579956E+03 2.463860016E+02 -1.722868538E+01 1.306041598E+00 -1.066546366E-01 5.084523559E-01
 1.162579956E+03 2.463860016E+02 -1.702868652E+01 1.305685639E+00 -1.064445898E-01 5.069760084E-01
 1.162579956E+03 2.463860016E+02 -1.682868385E+01 1.305329800E+00 -1.062345430E-01 5.054997802E-01
 1.162579956E+03 2.463860016E+02 -1.662868500E+01 1.304973841E+00 -1.060245186E-01 5.040235519E-01
 1.162579956E+03 2.463860016E+02 -1.642868423E+01 1.304618001E+00 -1.058145016E-01 5.025475025E-01
 1.162579956E+03 2.463860016E+02 -1.622868538E+01 1.304262161E+00 -1.056045070E-01 5.010715127E-01
 1.162579956E+03 2.463860016E+02 -1.602868462E+01 1.303906322E+00 -1.053945124E-01 4.995956421E-01
 1.162579956E+03 2.463860016E+02 -1.582868385E+01 1.303550363E+00 -1.051845327E-01 4.981198013E-01
 1.162579956E+03 2.463860016E+02 -1.562868404E+01 1.303194761E+00 -1.049745753E-01 4.966441095E-01
 1.162579956E+03 2.463860016E+02 -1.542868423E+01 1.302890778E+00 -1.048136577E-01 4.951725006E-01
 1.162579956E+03 2.463860016E+02 -1.522868538E+01 1.302723289E+00 -1.047815681E-01 4.937115610E-01
 1.162579956E+03 2.463860016E+02 -1.502868462E+01 1.302555799E+00 -1.047494859E-01 4.922506511E-01
 1.162579956E+03 2.463860016E+02 -1.482868481E+01 1.302357912E+00 -1.047020257E-01 4.908541143E-01
 1.162579956E+03 2.463860016E+02 -1.462868500E+01 1.302097440E+00 -1.046229452E-01 4.895897806E-01
 1.162579956E+03 2.463860016E+02 -1.442868423E+01 1.301837087E+00 -1.045438796E-01 4.883255661E-01
 1.162579956E+03 2.463860016E+02 -1.422868443E+01 1.301585555E+00 -1.044735834E-01 4.870901406E-01
 1.162579956E+03 2.463860016E+02 -1.402868557E+01 1.301341653E+00 -1.044107676E-01 4.858793914E-01
 1.162579956E+03 2.463860016E+02 -1.382868481E+01 1.301097751E+00 -1.043479443E-01 4.846686423E-01
 1.162579956E+03 2.463860016E+02 -1.362868500E+01 1.300824165E+00 -1.042658314E-01 4.833930731E-01
 1.162579956E+03 2.463860016E+02 -1.342868519E+01 1.300512314E+00 -1.041587442E-01 4.820333719E-01
 1.162579956E+03 2.463860016E+02 -1.322868443E+01 1.300200343E+00 -1.040516421E-01 4.806737602E-01
 1.162579956E+03 2.463860016E+02 -1.302868462E+01 1.299888611E+00 -1.039445624E-01 4.793142676E-01
 1.162579956E+03 2.463860016E+02 -1.282868481E+01 1.299576879E+00 -1.038374752E-01 4.779548347E-01
 1.162579956E+03 2.463860016E+02 -1.262868500E+01 1.299265027E+00 -1.037304029E-01 4.765955210E-01
 1.162579956E+03 2.463860016E+02 -1.242868519E+01 1.298953295E+00 -1.036233529E-01 4.752362967E-01
 1.162579956E+03 2.463860016E+02 -1.222868443E+01 1.298641562E+00 -1.035162881E-01 4.738771319E-01
 1.162579956E+03 2.463860016E+02 -1.202868462E+01 1.298434615E+00 -1.034925655E-01 4.727745950E-01
 1.162579956E+03 2.463860016E+02 -1.182868481E+01 1.298272729E+00 -1.035047099E-01 4.717825949E-01
 1.162579956E+03 2.463860016E+02 -1.162868500E+01 1.298110723E+00 -1.035168767E-01 4.707906544E-01
 1.162579956E+03 2.463860016E+02 -1.142868519E+01 1.297859788E+00 -1.034781858E-01 4.698349833E-01
 1.162579956E+03 2.463860016E+02 -1.122868538E+01 1.297534943E+00 -1.033972576E-01 4.689093828E-01
 1.162579956E+03 2.463860016E+02 -1.102868462E+01 1.297210097E+00 -1.033163369E-01 4.679839313E-01
 1.162579956E+03 2.463860016E+02 -1.082868481E+01 1.296885133E+00 -1.032354161E-01 4.670584798E-01
 1.162579956E+03 2.463860016E+02 -1.062868404E+01 1.296560407E+00 -1.031545177E-01 4.661330879E-01
 1.162579956E+03 2.463860016E+02 -1.042868519E+01 1.296235442E+00 -1.030736044E-01 4.652077854E-01
 1.162579956E+03 2.463860016E+02 -1.022868538E+01 1.295915484E+00 -1.029852480E-01 4.642533660E-01
 1.162579956E+03 2.463860016E+02 -1.002868462E+01 1.295601249E+00 -1.028879285E-01 4.632640779E-01
 1.162579956E+03 2.463860016E+02 -9.828684807E+00 1.295287132E+00 -1.027906165E-01 4.622748494E-01
 1.162579956E+03 2.463860016E+02 -9.628684998E+00 1.294972897E+00 -1.026933119E-01 4.612856805E-01
 1.162579956E+03 2.463860016E+02 -9.428684235E+00 1.294658661E+00 -1.025959998E-01 4.602965117E-01
 1.162579956E+03 2.463860016E+02 -9.228685379E+00 1.294344544E+00 -1.024987102E-01 4.593074918E-01
 1.162579956E+03 2.463860016E+02 -9.028685570E+00 1.294030428E+00 -1.024014205E-01 4.583184421E-01
 1.162579956E+03 2.463860016E+02 -8.828684807E+00 1.293716311E+00 -1.023041308E-01 4.573295116E-01
 1.162579956E+03 2.463860016E+02 -8.628684998E+00 1.293402195E+00 -1.022068635E-01 4.563405812E-01
 1.162579956E+03 2.463860016E+02 -8.428684235E+00 1.293088198E+00 -1.021095887E-01 4.553517699E-01
 1.162579956E+03 2.463860016E+02 -8.228684425E+00 1.292766929E+00 -1.020124033E-01 4.542841911E-01
 1.162579956E+03 2.463860016E+02 -8.028685570E+00 1.292435050E+00 -1.019102186E-01 4.531433582E-01
 1.162579956E+03 2.463860016E+02 -7.828684330E+00 1.292102933E+00 -1.018080413E-01 4.520025253E-01
 1.162579956E+03 2.463860016E+02 -7.628684998E+00 1.291771054E+00 -1.017058790E-01 4.508618116E-01
 1.162579956E+03 2.463860016E+02 -7.428684711E+00 1.291439056E+00 -1.016037092E-01 4.497210979E-01
 1.162579956E+03 2.463860016E+02 -7.228684902E+00 1.291107059E+00 -1.015015543E-01 4.485804737E-01
 1.162579956E+03 2.463860016E+02 -7.028685093E+00 1.290775180E+00 -1.013994142E-01 4.474399388E-01
 1.162579956E+03 2.463860016E+02 -6.828684807E+00 1.290443182E+00 -1.012972593E-01 4.462994635E-01
 1.162579956E+03 2.463860016E+02 -6.628684521E+00 1.290111303E+00 -1.011951268E-01 4.451590478E-01
 1.162579956E+03 2.463860016E+02 -6.428685188E+00 1.289771795E+00 -1.010588259E-01 4.441912174E-01
 1.162579956E+03 2.463860016E+02 -6.228684902E+00 1.289432049E+00 -1.009214148E-01 4.432291389E-01
 1.162579956E+03 2.463860016E+02 -6.028684616E+00 1.289092302E+00 -1.007840037E-01 4.422670603E-01
 1.162579956E+03 2.463860016E+02 -5.828684807E+00 1.288737059E+00 -1.006574854E-01 4.412588775E-01
 1.162579956E+03 2.463860016E+02 -5.628684998E+00 1.288365245E+00 -1.005428135E-01 4.402004778E-01
 1.162579956E+03 2.463860016E+02 -5.428684711E+00 1.287993312E+00 -1.004281417E-01 4.391421378E-01
 1.162579956E+03 2.463860016E+02 -5.228684902E+00 1.287621498E+00 -1.003134847E-01 4.380838871E-01