TITLE = "015.2"

VARIABLES = "X" "Y" "Z" "u/Uinf" "v/Uinf" "w/Uinf"

##
## CFD-Post Generic Export
##
## CFX-14.5 build 2012.09.19-21.47
##
## Generated on:  2013/05/17 18:05:28
##
## Generated from case(s): Case HiLiPW2_Case1Config2_Grid_Ac_Poly highRe AoA0 26 02000
##

ZONE T="015.2 case2b a0.0 medium, p1, wB, line1"

1.16258001e+000, 2.46386006e-001, -6.00286983e-002, 6.39558062e-002, 4.11555260e-001, -3.95817876e-001
1.16258001e+000, 2.46386006e-001, -5.98286986e-002, 7.52386451e-002, 4.03321266e-001, -3.77094924e-001
1.16258001e+000, 2.46386006e-001, -5.96286990e-002, 8.69592801e-002, 3.93080801e-001, -3.56298417e-001
1.16258001e+000, 2.46386006e-001, -5.94286993e-002, 9.99673605e-002, 3.80985290e-001, -3.33919853e-001
1.16258001e+000, 2.46386006e-001, -5.92286997e-002, 1.13393605e-001, 3.66715997e-001, -3.08930248e-001
1.16258001e+000, 2.46386006e-001, -5.90287000e-002, 1.27227187e-001, 3.52106661e-001, -2.83855230e-001
1.16258001e+000, 2.46386006e-001, -5.88287003e-002, 1.41812399e-001, 3.36925089e-001, -2.58743435e-001
1.16258001e+000, 2.46386006e-001, -5.86287007e-002, 1.56668469e-001, 3.20429295e-001, -2.31991544e-001
1.16258001e+000, 2.46386006e-001, -5.84287010e-002, 1.71889648e-001, 3.04194301e-001, -2.05879092e-001
1.16258001e+000, 2.46386006e-001, -5.82287014e-002, 1.87396556e-001, 2.88356692e-001, -1.80513024e-001
1.16258001e+000, 2.46386006e-001, -5.80287017e-002, 2.04697505e-001, 2.69738227e-001, -1.52443320e-001
1.16258001e+000, 2.46386006e-001, -5.78287020e-002, 2.26256207e-001, 2.43282229e-001, -1.13685206e-001
1.16258001e+000, 2.46386006e-001, -5.76287024e-002, 2.46508136e-001, 2.20830813e-001, -8.00245106e-002
1.16258001e+000, 2.46386006e-001, -5.74287027e-002, 2.67065883e-001, 2.04498887e-001, -5.29081896e-002
1.16258001e+000, 2.46386006e-001, -5.72287031e-002, 2.84981310e-001, 1.87528640e-001, -2.55597886e-002
1.16258001e+000, 2.46386006e-001, -5.70287034e-002, 2.96147972e-001, 1.79553449e-001, -8.45978409e-003
1.16258001e+000, 2.46386006e-001, -5.68287037e-002, 3.08770686e-001, 1.71206459e-001, 5.98583091e-003
1.16258001e+000, 2.46386006e-001, -5.66287041e-002, 3.15999627e-001, 1.66783273e-001, 1.73708517e-002
1.16258001e+000, 2.46386006e-001, -5.64287044e-002, 3.22136492e-001, 1.66258886e-001, 2.73939949e-002
1.16258001e+000, 2.46386006e-001, -5.62287048e-002, 3.34623784e-001, 1.57043442e-001, 4.54590172e-002
1.16258001e+000, 2.46386006e-001, -5.60287051e-002, 3.46659988e-001, 1.47584215e-001, 6.08960055e-002
1.16258001e+000, 2.46386006e-001, -5.58287054e-002, 3.54502261e-001, 1.42261043e-001, 7.20731094e-002
1.16258001e+000, 2.46386006e-001, -5.56287058e-002, 3.62049639e-001, 1.33793533e-001, 8.63661319e-002
1.16258001e+000, 2.46386006e-001, -5.54287061e-002, 3.71493906e-001, 1.25389770e-001, 1.02381378e-001
1.16258001e+000, 2.46386006e-001, -5.52287064e-002, 3.83128941e-001, 1.16288766e-001, 1.17002815e-001
1.16258001e+000, 2.46386006e-001, -5.50287068e-002, 3.92203122e-001, 1.06814064e-001, 1.27918452e-001
1.16258001e+000, 2.46386006e-001, -5.48287071e-002, 4.05389130e-001, 9.30829868e-002, 1.42411649e-001
1.16258001e+000, 2.46386006e-001, -5.46287075e-002, 4.17516142e-001, 8.19448382e-002, 1.57312453e-001
1.16258001e+000, 2.46386006e-001, -5.44287078e-002, 4.30006325e-001, 6.94099516e-002, 1.71357602e-001
1.16258001e+000, 2.46386006e-001, -5.42287081e-002, 4.45877820e-001, 5.36362417e-002, 1.88399419e-001
1.16258001e+000, 2.46386006e-001, -5.40287085e-002, 4.56146657e-001, 4.29612882e-002, 2.01292232e-001
1.16258001e+000, 2.46386006e-001, -5.38287088e-002, 4.69462901e-001, 2.76178475e-002, 2.16824695e-001
1.16258001e+000, 2.46386006e-001, -5.36287092e-002, 4.83127922e-001, 1.17723383e-002, 2.31589302e-001
1.16258001e+000, 2.46386006e-001, -5.34287095e-002, 4.98993695e-001, -6.11800933e-003, 2.46662810e-001
1.16258001e+000, 2.46386006e-001, -5.32287098e-002, 5.14486849e-001, -2.41050776e-002, 2.63157457e-001
1.16258001e+000, 2.46386006e-001, -5.30287102e-002, 5.26077032e-001, -3.89026217e-002, 2.77971447e-001
1.16258001e+000, 2.46386006e-001, -5.28287105e-002, 5.40024340e-001, -5.72584979e-002, 2.96356499e-001
1.16258001e+000, 2.46386006e-001, -5.26287109e-002, 5.51184654e-001, -7.17464238e-002, 3.10701728e-001
1.16258001e+000, 2.46386006e-001, -5.24287112e-002, 5.68627179e-001, -9.38707888e-002, 3.27460706e-001
1.16258001e+000, 2.46386006e-001, -5.22287115e-002, 5.83682775e-001, -1.09186284e-001, 3.40889722e-001
1.16258001e+000, 2.46386006e-001, -5.20287119e-002, 5.94077289e-001, -1.11044496e-001, 3.47759277e-001
1.16258001e+000, 2.46386006e-001, -5.18287122e-002, 6.03995800e-001, -1.17548235e-001, 3.56267005e-001
1.16258001e+000, 2.46386006e-001, -5.16287126e-002, 6.13700807e-001, -1.25891700e-001, 3.65319550e-001
1.16258001e+000, 2.46386006e-001, -5.14287129e-002, 6.23166263e-001, -1.31057888e-001, 3.71283561e-001
1.16258001e+000, 2.46386006e-001, -5.12287132e-002, 6.32737041e-001, -1.36238232e-001, 3.77301216e-001
1.16258001e+000, 2.46386006e-001, -5.10287136e-002, 6.42455280e-001, -1.40820622e-001, 3.83157492e-001
1.16258001e+000, 2.46386006e-001, -5.08287139e-002, 6.64842188e-001, -1.28855243e-001, 3.88721645e-001
1.16258001e+000, 2.46386006e-001, -5.06287143e-002, 6.88660979e-001, -1.15122743e-001, 3.94334465e-001
1.16258001e+000, 2.46386006e-001, -5.04287146e-002, 7.12918043e-001, -1.01011589e-001, 3.99946779e-001
1.16258001e+000, 2.46386006e-001, -5.02287149e-002, 7.37175465e-001, -8.69004428e-002, 4.05559003e-001
1.16258001e+000, 2.46386006e-001, -5.00287153e-002, 7.55504072e-001, -8.22860077e-002, 4.12500590e-001
1.16258001e+000, 2.46386006e-001, -4.98287156e-002, 7.72781372e-001, -7.94127509e-002, 4.19719070e-001
1.16258001e+000, 2.46386006e-001, -4.96287160e-002, 7.92809367e-001, -7.29220212e-002, 4.26838428e-001
1.16258001e+000, 2.46386006e-001, -4.94287163e-002, 8.12636316e-001, -6.67748898e-002, 4.33919430e-001
1.16258001e+000, 2.46386006e-001, -4.92287166e-002, 8.33815515e-001, -5.97779565e-002, 4.41080719e-001
1.16258001e+000, 2.46386006e-001, -4.90287170e-002, 8.55355382e-001, -5.23830540e-002, 4.48284149e-001
1.16258001e+000, 2.46386006e-001, -4.88287173e-002, 8.76895487e-001, -4.49881405e-002, 4.55487639e-001
1.16258001e+000, 2.46386006e-001, -4.86287177e-002, 8.98435414e-001, -3.75932306e-002, 4.62691158e-001
1.16258001e+000, 2.46386006e-001, -4.84287180e-002, 9.18422163e-001, -3.07179373e-002, 4.69552338e-001
1.16258001e+000, 2.46386006e-001, -4.82287183e-002, 9.31742489e-001, -2.61203554e-002, 4.74548966e-001
1.16258001e+000, 2.46386006e-001, -4.80287187e-002, 9.41741705e-001, -2.21642219e-002, 4.78220552e-001
1.16258001e+000, 2.46386006e-001, -4.78287190e-002, 9.50261295e-001, -1.82737838e-002, 4.81214046e-001
1.16258001e+000, 2.46386006e-001, -4.76287194e-002, 9.58780885e-001, -1.43833458e-002, 4.84207451e-001
1.16258001e+000, 2.46386006e-001, -4.74287197e-002, 9.67300475e-001, -1.04929041e-002, 4.87200797e-001
1.16258001e+000, 2.46386006e-001, -4.72287200e-002, 9.78424609e-001, -6.67796144e-003, 4.90766078e-001
1.16258001e+000, 2.46386006e-001, -4.70287204e-002, 9.92340922e-001, -2.94394209e-003, 4.94944543e-001
1.16258001e+000, 2.46386006e-001, -4.68287207e-002, 1.00529671e+000, 6.53317315e-004, 4.98844802e-001
1.16258001e+000, 2.46386006e-001, -4.66287211e-002, 1.01206517e+000, 2.40618363e-003, 5.00626326e-001
1.16258001e+000, 2.46386006e-001, -4.64287214e-002, 1.01823092e+000, 3.96390352e-003, 5.02196074e-001
1.16258001e+000, 2.46386006e-001, -4.62287217e-002, 1.02439654e+000, 5.52162249e-003, 5.03765881e-001
1.16258001e+000, 2.46386006e-001, -4.60287221e-002, 1.03180945e+000, 7.57051352e-003, 5.05614400e-001
1.16258001e+000, 2.46386006e-001, -4.58287224e-002, 1.04040074e+000, 1.00835003e-002, 5.07726312e-001
1.16258001e+000, 2.46386006e-001, -4.56287228e-002, 1.05183184e+000, 1.42674828e-002, 5.10808468e-001
1.16258001e+000, 2.46386006e-001, -4.54287231e-002, 1.06201220e+000, 1.79858897e-002, 5.13467014e-001
1.16258001e+000, 2.46386006e-001, -4.52287234e-002, 1.06772804e+000, 2.00068746e-002, 5.14611721e-001
1.16258001e+000, 2.46386006e-001, -4.50287238e-002, 1.07344377e+000, 2.20278502e-002, 5.15756607e-001
1.16258001e+000, 2.46386006e-001, -4.48287241e-002, 1.07990158e+000, 2.42803786e-002, 5.17151654e-001
1.16258001e+000, 2.46386006e-001, -4.46287245e-002, 1.08291721e+000, 2.42243446e-002, 5.16992509e-001
1.16258001e+000, 2.46386006e-001, -4.44287248e-002, 1.08565915e+000, 2.39876080e-002, 5.16858041e-001
1.16258001e+000, 2.46386006e-001, -4.42287251e-002, 1.08840096e+000, 2.37508696e-002, 5.16723454e-001
1.16258001e+000, 2.46386006e-001, -4.40287255e-002, 1.09114325e+000, 2.35141367e-002, 5.16588867e-001
1.16258001e+000, 2.46386006e-001, -4.38287258e-002, 1.09206045e+000, 2.21827980e-002, 5.15555382e-001
1.16258001e+000, 2.46386006e-001, -4.36287262e-002, 1.09173274e+000, 2.03886889e-002, 5.14122188e-001
1.16258001e+000, 2.46386006e-001, -4.34287265e-002, 1.09132218e+000, 1.86648238e-002, 5.12701511e-001
1.16258001e+000, 2.46386006e-001, -4.32287268e-002, 1.09138954e+000, 1.71196647e-002, 5.11416852e-001
1.16258001e+000, 2.46386006e-001, -4.30287272e-002, 1.09202707e+000, 1.57875307e-002, 5.10294616e-001
1.16258001e+000, 2.46386006e-001, -4.28287275e-002, 1.09281754e+000, 1.45345461e-002, 5.08994043e-001
1.16258001e+000, 2.46386006e-001, -4.26287279e-002, 1.09359384e+000, 1.34033337e-002, 5.07655561e-001
1.16258001e+000, 2.46386006e-001, -4.24287282e-002, 1.09424663e+000, 1.22535406e-002, 5.06366134e-001
1.16258001e+000, 2.46386006e-001, -4.22287285e-002, 1.09524071e+000, 1.12405233e-002, 5.05088210e-001
1.16258001e+000, 2.46386006e-001, -4.20287289e-002, 1.09738433e+000, 1.08689545e-002, 5.03970563e-001
1.16258001e+000, 2.46386006e-001, -4.18287292e-002, 1.09931040e+000, 1.04970951e-002, 5.02871156e-001
1.16258001e+000, 2.46386006e-001, -4.16287296e-002, 1.10123682e+000, 1.01252366e-002, 5.01771927e-001
1.16258001e+000, 2.46386006e-001, -4.14287299e-002, 1.10317957e+000, 9.73389577e-003, 5.00659764e-001
1.16258001e+000, 2.46386006e-001, -4.12287302e-002, 1.10562706e+000, 9.40945651e-003, 4.99515980e-001
1.16258001e+000, 2.46386006e-001, -4.10287306e-002, 1.10889149e+000, 9.25928820e-003, 4.98357385e-001
1.16258001e+000, 2.46386006e-001, -4.08287309e-002, 1.11214888e+000, 9.11576208e-003, 4.97199476e-001
1.16258001e+000, 2.46386006e-001, -4.06287313e-002, 1.11532664e+000, 9.04605538e-003, 4.96048778e-001
1.16258001e+000, 2.46386006e-001, -4.04287316e-002, 1.11719549e+000, 8.52977391e-003, 4.94788110e-001
1.16258001e+000, 2.46386006e-001, -4.02287319e-002, 1.11806309e+000, 7.67232245e-003, 4.93442744e-001
1.16258001e+000, 2.46386006e-001, -4.00287323e-002, 1.11893082e+000, 6.81486726e-003, 4.92097408e-001
1.16258001e+000, 2.46386006e-001, -3.98287326e-002, 1.11979842e+000, 5.95741253e-003, 4.90752161e-001
1.16258001e+000, 2.46386006e-001, -3.96287329e-002, 1.12066603e+000, 5.09995921e-003, 4.89406794e-001
1.16258001e+000, 2.46386006e-001, -3.94287333e-002, 1.12153375e+000, 4.24250588e-003, 4.88061517e-001
1.16258001e+000, 2.46386006e-001, -3.92287336e-002, 1.12246585e+000, 3.34498100e-003, 4.86706078e-001
1.16258001e+000, 2.46386006e-001, -3.90287340e-002, 1.12354457e+000, 2.33768416e-003, 4.85266775e-001
1.16258001e+000, 2.46386006e-001, -3.88287343e-002, 1.12483728e+000, 1.18839112e-003, 4.83743221e-001
1.16258001e+000, 2.46386006e-001, -3.86287346e-002, 1.12576878e+000, 3.32362426e-004, 4.82031822e-001
1.16258001e+000, 2.46386006e-001, -3.84287350e-002, 1.12657869e+000, -5.35992614e-004, 4.80413675e-001
1.16258001e+000, 2.46386006e-001, -3.82287353e-002, 1.12746453e+000, -1.45526417e-003, 4.78779137e-001
1.16258001e+000, 2.46386006e-001, -3.80287357e-002, 1.12838769e+000, -2.38481234e-003, 4.77158725e-001
1.16258001e+000, 2.46386006e-001, -3.78287360e-002, 1.12932169e+000, -3.31741874e-003, 4.75542426e-001
1.16258001e+000, 2.46386006e-001, -3.76287363e-002, 1.13025558e+000, -4.25002631e-003, 4.73926067e-001
1.16258001e+000, 2.46386006e-001, -3.74287367e-002, 1.13118958e+000, -5.18263271e-003, 4.72309679e-001
1.16258001e+000, 2.46386006e-001, -3.72287370e-002, 1.13212347e+000, -6.11523818e-003, 4.70693320e-001
1.16258001e+000, 2.46386006e-001, -3.70287374e-002, 1.13303173e+000, -7.02017406e-003, 4.69064564e-001
1.16258001e+000, 2.46386006e-001, -3.68287377e-002, 1.13354540e+000, -7.68722640e-003, 4.67567891e-001
1.16258001e+000, 2.46386006e-001, -3.66287380e-002, 1.13413846e+000, -8.35424662e-003, 4.66047615e-001
1.16258001e+000, 2.46386006e-001, -3.64287384e-002, 1.13475215e+000, -9.00637824e-003, 4.64534789e-001
1.16258001e+000, 2.46386006e-001, -3.62287387e-002, 1.13536584e+000, -9.65850707e-003, 4.63021964e-001
1.16258001e+000, 2.46386006e-001, -3.60287391e-002, 1.13597953e+000, -1.03106368e-002, 4.61509049e-001
1.16258001e+000, 2.46386006e-001, -3.58287394e-002, 1.13659310e+000, -1.09627666e-002, 4.59996223e-001
1.16258001e+000, 2.46386006e-001, -3.56287397e-002, 1.13729417e+000, -1.16257509e-002, 4.58569646e-001
1.16258001e+000, 2.46386006e-001, -3.54287401e-002, 1.13768756e+000, -1.21516576e-002, 4.56975847e-001
1.16258001e+000, 2.46386006e-001, -3.52287404e-002, 1.13806009e+000, -1.26683600e-002, 4.55370754e-001
1.16258001e+000, 2.46386006e-001, -3.50287408e-002, 1.13842785e+000, -1.31757781e-002, 4.53751445e-001
1.16258001e+000, 2.46386006e-001, -3.48287411e-002, 1.13874280e+000, -1.35779381e-002, 4.51974690e-001
1.16258001e+000, 2.46386006e-001, -3.46287414e-002, 1.13907826e+000, -1.39908344e-002, 4.50200796e-001
1.16258001e+000, 2.46386006e-001, -3.44287418e-002, 1.13948298e+000, -1.44404834e-002, 4.48436469e-001
1.16258001e+000, 2.46386006e-001, -3.42287421e-002, 1.13988769e+000, -1.48901334e-002, 4.46672142e-001
1.16258001e+000, 2.46386006e-001, -3.40287425e-002, 1.14029241e+000, -1.53397815e-002, 4.44907814e-001
1.16258001e+000, 2.46386006e-001, -3.38287428e-002, 1.14070189e+000, -1.57878231e-002, 4.43099141e-001
1.16258001e+000, 2.46386006e-001, -3.36287431e-002, 1.14114666e+000, -1.62650961e-002, 4.41025376e-001
1.16258001e+000, 2.46386006e-001, -3.34287435e-002, 1.14161670e+000, -1.67740360e-002, 4.38778132e-001
1.16258001e+000, 2.46386006e-001, -3.32287438e-002, 1.14219892e+000, -1.73250157e-002, 4.36554551e-001
1.16258001e+000, 2.46386006e-001, -3.30287442e-002, 1.14278328e+000, -1.78767219e-002, 4.34331536e-001
1.16258001e+000, 2.46386006e-001, -3.28287445e-002, 1.14332640e+000, -1.84007697e-002, 4.32122856e-001
1.16258001e+000, 2.46386006e-001, -3.26287448e-002, 1.14364207e+000, -1.87717862e-002, 4.29994524e-001
1.16258001e+000, 2.46386006e-001, -3.24287452e-002, 1.14397001e+000, -1.91396661e-002, 4.27929759e-001
1.16258001e+000, 2.46386006e-001, -3.22287455e-002, 1.14435875e+000, -1.94918662e-002, 4.26182270e-001
1.16258001e+000, 2.46386006e-001, -3.20287459e-002, 1.14474773e+000, -1.98440682e-002, 4.24434721e-001
1.16258001e+000, 2.46386006e-001, -3.18287462e-002, 1.14513648e+000, -2.01962702e-002, 4.22687143e-001
1.16258001e+000, 2.46386006e-001, -3.16287465e-002, 1.14560521e+000, -2.05572192e-002, 4.21266288e-001
1.16258001e+000, 2.46386006e-001, -3.14287469e-002, 1.14612377e+000, -2.09238231e-002, 4.20049310e-001
1.16258001e+000, 2.46386006e-001, -3.12287472e-002, 1.14663470e+000, -2.12869216e-002, 4.18829530e-001
1.16258001e+000, 2.46386006e-001, -3.10287476e-002, 1.14692318e+000, -2.15287302e-002, 4.17704403e-001
1.16258001e+000, 2.46386006e-001, -3.08287479e-002, 1.14716840e+000, -2.17467174e-002, 4.16595936e-001
1.16258001e+000, 2.46386006e-001, -3.06287482e-002, 1.14741337e+000, -2.19646674e-002, 4.15484637e-001
1.16258001e+000, 2.46386006e-001, -3.04287486e-002, 1.14766896e+000, -2.21854784e-002, 4.14428920e-001
1.16258001e+000, 2.46386006e-001, -3.02287489e-002, 1.14793086e+000, -2.24081129e-002, 4.13408607e-001
1.16258001e+000, 2.46386006e-001, -3.00287493e-002, 1.14819264e+000, -2.26307381e-002, 4.12388176e-001
1.16258001e+000, 2.46386006e-001, -2.98287496e-002, 1.14845693e+000, -2.28552464e-002, 4.11366940e-001
1.16258001e+000, 2.46386006e-001, -2.96287499e-002, 1.14879632e+000, -2.31363308e-002, 4.10300791e-001
1.16258001e+000, 2.46386006e-001, -2.94287503e-002, 1.14943171e+000, -2.35946290e-002, 4.09085423e-001
1.16258001e+000, 2.46386006e-001, -2.92287506e-002, 1.14999914e+000, -2.40230542e-002, 4.07837391e-001
1.16258001e+000, 2.46386006e-001, -2.90287510e-002, 1.15062916e+000, -2.44954750e-002, 4.06564474e-001
1.16258001e+000, 2.46386006e-001, -2.88287513e-002, 1.15125930e+000, -2.49678958e-002, 4.05291557e-001
1.16258001e+000, 2.46386006e-001, -2.86287516e-002, 1.15182924e+000, -2.54090969e-002, 4.04018193e-001
1.16258001e+000, 2.46386006e-001, -2.84287520e-002, 1.15220225e+000, -2.57477313e-002, 4.02742714e-001
1.16258001e+000, 2.46386006e-001, -2.82287523e-002, 1.15257502e+000, -2.60863639e-002, 4.01467234e-001
1.16258001e+000, 2.46386006e-001, -2.80287527e-002, 1.15290642e+000, -2.64038462e-002, 4.00199026e-001
1.16258001e+000, 2.46386006e-001, -2.78287530e-002, 1.15300608e+000, -2.66101286e-002, 3.98929000e-001
1.16258001e+000, 2.46386006e-001, -2.76287533e-002, 1.15310562e+000, -2.68164147e-002, 3.97659004e-001
1.16258001e+000, 2.46386006e-001, -2.74287537e-002, 1.15322590e+000, -2.70332396e-002, 3.96391124e-001
1.16258001e+000, 2.46386006e-001, -2.72287540e-002, 1.15332317e+000, -2.72196345e-002, 3.95219207e-001
1.16258001e+000, 2.46386006e-001, -2.70287544e-002, 1.15331566e+000, -2.73239370e-002, 3.94178540e-001
1.16258001e+000, 2.46386006e-001, -2.68287547e-002, 1.15330791e+000, -2.74310615e-002, 3.93108249e-001
1.16258001e+000, 2.46386006e-001, -2.66287550e-002, 1.15329957e+000, -2.75495723e-002, 3.91917557e-001
1.16258001e+000, 2.46386006e-001, -2.64287554e-002, 1.15329146e+000, -2.76680924e-002, 3.90726954e-001
1.16258001e+000, 2.46386006e-001, -2.62287557e-002, 1.15325439e+000, -2.78378539e-002, 3.89095932e-001
1.16258001e+000, 2.46386006e-001, -2.60287561e-002, 1.15320635e+000, -2.80267019e-002, 3.87300730e-001
1.16258001e+000, 2.46386006e-001, -2.58287564e-002, 1.15315878e+000, -2.82155667e-002, 3.85505617e-001
1.16258001e+000, 2.46386006e-001, -2.56287567e-002, 1.15311050e+000, -2.84044184e-002, 3.83710355e-001
1.16258001e+000, 2.46386006e-001, -2.54287571e-002, 1.15325570e+000, -2.86470633e-002, 3.82048696e-001
1.16258001e+000, 2.46386006e-001, -2.52287574e-002, 1.15343451e+000, -2.88991444e-002, 3.80410492e-001
1.16258001e+000, 2.46386006e-001, -2.50287578e-002, 1.15369046e+000, -2.91707832e-002, 3.78881663e-001
1.16258001e+000, 2.46386006e-001, -2.48287581e-002, 1.15405297e+000, -2.94693336e-002, 3.77503633e-001
1.16258001e+000, 2.46386006e-001, -2.46287584e-002, 1.15436029e+000, -2.97335181e-002, 3.76157582e-001
1.16258001e+000, 2.46386006e-001, -2.44287588e-002, 1.15462530e+000, -2.99714636e-002, 3.74835849e-001
1.16258001e+000, 2.46386006e-001, -2.42287591e-002, 1.15488875e+000, -3.02231833e-002, 3.73415172e-001
1.16258001e+000, 2.46386006e-001, -2.40287594e-002, 1.15515018e+000, -3.04908603e-002, 3.71879905e-001
1.16258001e+000, 2.46386006e-001, -2.38287598e-002, 1.15541101e+000, -3.07585280e-002, 3.70344371e-001
1.16258001e+000, 2.46386006e-001, -2.36287601e-002, 1.15564966e+000, -3.10255662e-002, 3.68784547e-001
1.16258001e+000, 2.46386006e-001, -2.34287605e-002, 1.15588832e+000, -3.12925950e-002, 3.67224634e-001
1.16258001e+000, 2.46386006e-001, -2.32287608e-002, 1.15606856e+000, -3.15074511e-002, 3.65778893e-001
1.16258001e+000, 2.46386006e-001, -2.30287611e-002, 1.15621781e+000, -3.16985287e-002, 3.64366919e-001
1.16258001e+000, 2.46386006e-001, -2.28287615e-002, 1.15620351e+000, -3.17736864e-002, 3.63033265e-001
1.16258001e+000, 2.46386006e-001, -2.26287618e-002, 1.15617394e+000, -3.18414047e-002, 3.61702442e-001
1.16258001e+000, 2.46386006e-001, -2.24287622e-002, 1.15607524e+000, -3.18744816e-002, 3.60385001e-001
1.16258001e+000, 2.46386006e-001, -2.22287625e-002, 1.15601981e+000, -3.19278613e-002, 3.59119087e-001
1.16258001e+000, 2.46386006e-001, -2.20287628e-002, 1.15603161e+000, -3.20097581e-002, 3.57934415e-001
1.16258001e+000, 2.46386006e-001, -2.18287632e-002, 1.15600431e+000, -3.20420042e-002, 3.56759429e-001
1.16258001e+000, 2.46386006e-001, -2.16287635e-002, 1.15597689e+000, -3.20742503e-002, 3.55584383e-001
1.16258001e+000, 2.46386006e-001, -2.14287639e-002, 1.15593219e+000, -3.20888236e-002, 3.54446203e-001
1.16258001e+000, 2.46386006e-001, -2.12287642e-002, 1.15594864e+000, -3.21259238e-002, 3.53282034e-001
1.16258001e+000, 2.46386006e-001, -2.10287645e-002, 1.15604770e+000, -3.22062336e-002, 3.52049470e-001
1.16258001e+000, 2.46386006e-001, -2.08287649e-002, 1.15614665e+000, -3.22865434e-002, 3.50816905e-001
1.16258001e+000, 2.46386006e-001, -2.06287652e-002, 1.15627444e+000, -3.23832706e-002, 3.49560797e-001
1.16258001e+000, 2.46386006e-001, -2.04287656e-002, 1.15645003e+000, -3.25075574e-002, 3.48264962e-001
1.16258001e+000, 2.46386006e-001, -2.02287659e-002, 1.15662527e+000, -3.26318443e-002, 3.46969008e-001
1.16258001e+000, 2.46386006e-001, -2.00287662e-002, 1.15680087e+000, -3.27561386e-002, 3.45673293e-001
1.16258001e+000, 2.46386006e-001, -1.98287666e-002, 1.15703893e+000, -3.29194926e-002, 3.44397336e-001
1.16258001e+000, 2.46386006e-001, -1.96287669e-002, 1.15733778e+000, -3.31208296e-002, 3.43139142e-001
1.16258001e+000, 2.46386006e-001, -1.94287673e-002, 1.15763676e+000, -3.33221890e-002, 3.41880918e-001
1.16258001e+000, 2.46386006e-001, -1.92287676e-002, 1.15784717e+000, -3.34687755e-002, 3.40592444e-001
1.16258001e+000, 2.46386006e-001, -1.90287679e-002, 1.15805292e+000, -3.36111933e-002, 3.39293301e-001
1.16258001e+000, 2.46386006e-001, -1.88287683e-002, 1.15825868e+000, -3.37536223e-002, 3.37994158e-001
1.16258001e+000, 2.46386006e-001, -1.86287686e-002, 1.15846264e+000, -3.38952020e-002, 3.36687922e-001
1.16258001e+000, 2.46386006e-001, -1.84287690e-002, 1.15865564e+000, -3.40321027e-002, 3.35304439e-001
1.16258001e+000, 2.46386006e-001, -1.82287693e-002, 1.15886128e+000, -3.41757350e-002, 3.33933324e-001
1.16258001e+000, 2.46386006e-001, -1.80287696e-002, 1.15906703e+000, -3.43193635e-002, 3.32562119e-001
1.16258001e+000, 2.46386006e-001, -1.78287700e-002, 1.15924847e+000, -3.44600715e-002, 3.31209600e-001
1.16258001e+000, 2.46386006e-001, -1.76287703e-002, 1.15913749e+000, -3.44909504e-002, 3.30058455e-001
1.16258001e+000, 2.46386006e-001, -1.74287707e-002, 1.15902007e+000, -3.45191397e-002, 3.28911424e-001
1.16258001e+000, 2.46386006e-001, -1.72287710e-002, 1.15890443e+000, -3.45484354e-002, 3.27761263e-001
1.16258001e+000, 2.46386006e-001, -1.70287713e-002, 1.15879619e+000, -3.45829241e-002, 3.26596171e-001
1.16258001e+000, 2.46386006e-001, -1.68287717e-002, 1.15868795e+000, -3.46174203e-002, 3.25431138e-001
1.16258001e+000, 2.46386006e-001, -1.66287720e-002, 1.15849030e+000, -3.46071124e-002, 3.24216902e-001
1.16258001e+000, 2.46386006e-001, -1.64287724e-002, 1.15823722e+000, -3.45724486e-002, 3.22972775e-001
1.16258001e+000, 2.46386006e-001, -1.62287727e-002, 1.15797865e+000, -3.45434658e-002, 3.21726888e-001
1.16258001e+000, 2.46386006e-001, -1.60287730e-002, 1.15772009e+000, -3.45144831e-002, 3.20480883e-001
1.16258001e+000, 2.46386006e-001, -1.58287734e-002, 1.15746081e+000, -3.44847217e-002, 3.19230020e-001
1.16258001e+000, 2.46386006e-001, -1.56287737e-002, 1.15742719e+000, -3.45546529e-002, 3.18286806e-001
1.16258001e+000, 2.46386006e-001, -1.54287741e-002, 1.15741706e+000, -3.46243978e-002, 3.17477703e-001
1.16258001e+000, 2.46386006e-001, -1.52287744e-002, 1.15723693e+000, -3.45911123e-002, 3.16636354e-001
1.16258001e+000, 2.46386006e-001, -1.50287747e-002, 1.15702486e+000, -3.45439985e-002, 3.15720439e-001
1.16258001e+000, 2.46386006e-001, -1.48287751e-002, 1.15698707e+000, -3.46078351e-002, 3.14610511e-001
1.16258001e+000, 2.46386006e-001, -1.46287754e-002, 1.15695024e+000, -3.46729197e-002, 3.13498944e-001
1.16258001e+000, 2.46386006e-001, -1.44287758e-002, 1.15691328e+000, -3.47379930e-002, 3.12387347e-001
1.16258001e+000, 2.46386006e-001, -1.42287761e-002, 1.15687084e+000, -3.47987413e-002, 3.11275363e-001
1.16258001e+000, 2.46386006e-001, -1.40287764e-002, 1.15675008e+000, -3.47923972e-002, 3.10157776e-001
1.16258001e+000, 2.46386006e-001, -1.38287768e-002, 1.15662920e+000, -3.47860530e-002, 3.09040099e-001
1.16258001e+000, 2.46386006e-001, -1.36287771e-002, 1.15651298e+000, -3.47830616e-002, 3.07926536e-001
1.16258001e+000, 2.46386006e-001, -1.34287775e-002, 1.15643346e+000, -3.48078497e-002, 3.06846768e-001
1.16258001e+000, 2.46386006e-001, -1.32287778e-002, 1.15635419e+000, -3.48326340e-002, 3.05766910e-001
1.16258001e+000, 2.46386006e-001, -1.30287781e-002, 1.15627515e+000, -3.48574370e-002, 3.04687172e-001
1.16258001e+000, 2.46386006e-001, -1.28287785e-002, 1.15619552e+000, -3.48822102e-002, 3.03607285e-001
1.16258001e+000, 2.46386006e-001, -1.26287788e-002, 1.15611637e+000, -3.49070020e-002, 3.02527398e-001
1.16258001e+000, 2.46386006e-001, -1.24287792e-002, 1.15605223e+000, -3.49319689e-002, 3.01482916e-001
1.16258001e+000, 2.46386006e-001, -1.22287795e-002, 1.15600443e+000, -3.49576324e-002, 3.00500542e-001
1.16258001e+000, 2.46386006e-001, -1.20287798e-002, 1.15597618e+000, -3.49860564e-002, 2.99684614e-001
1.16258001e+000, 2.46386006e-001, -1.18287802e-002, 1.15589356e+000, -3.49743441e-002, 2.98868179e-001
1.16258001e+000, 2.46386006e-001, -1.16287805e-002, 1.15580964e+000, -3.49616706e-002, 2.98051655e-001
1.16258001e+000, 2.46386006e-001, -1.14287809e-002, 1.15572572e+000, -3.49489935e-002, 2.97235101e-001
1.16258001e+000, 2.46386006e-001, -1.12287812e-002, 1.15564203e+000, -3.49363163e-002, 2.96418667e-001
1.16258001e+000, 2.46386006e-001, -1.10287815e-002, 1.15555823e+000, -3.49236391e-002, 2.95602083e-001
1.16258001e+000, 2.46386006e-001, -1.08287819e-002, 1.15547419e+000, -3.49109620e-002, 2.94785559e-001
1.16258001e+000, 2.46386006e-001, -1.06287822e-002, 1.15539062e+000, -3.48982811e-002, 2.93969065e-001
1.16258001e+000, 2.46386006e-001, -1.04287826e-002, 1.15530646e+000, -3.48856077e-002, 2.93152541e-001
1.16258001e+000, 2.46386006e-001, -1.02287829e-002, 1.15522289e+000, -3.48729305e-002, 2.92336047e-001
1.16258001e+000, 2.46386006e-001, -1.00287832e-002, 1.15510905e+000, -3.48456427e-002, 2.91520089e-001
1.16258001e+000, 2.46386006e-001, -9.82878357e-003, 1.15489590e+000, -3.47615741e-002, 2.90696800e-001
1.16258001e+000, 2.46386006e-001, -9.62878391e-003, 1.15481794e+000, -3.47470678e-002, 2.89771974e-001
1.16258001e+000, 2.46386006e-001, -9.42878425e-003, 1.15473509e+000, -3.47259417e-002, 2.88917869e-001
1.16258001e+000, 2.46386006e-001, -9.22878459e-003, 1.15477586e+000, -3.47589143e-002, 2.88057685e-001
1.16258001e+000, 2.46386006e-001, -9.02878493e-003, 1.15481615e+000, -3.47941257e-002, 2.87173361e-001
1.16258001e+000, 2.46386006e-001, -8.82878527e-003, 1.15485585e+000, -3.48354317e-002, 2.86236048e-001
1.16258001e+000, 2.46386006e-001, -8.62878561e-003, 1.15488708e+000, -3.48716043e-002, 2.85304636e-001
1.16258001e+000, 2.46386006e-001, -8.42878595e-003, 1.15491843e+000, -3.49077731e-002, 2.84373194e-001
1.16258001e+000, 2.46386006e-001, -8.22878629e-003, 1.15494990e+000, -3.49439494e-002, 2.83441722e-001
1.16258001e+000, 2.46386006e-001, -8.02878663e-003, 1.15498161e+000, -3.49801183e-002, 2.82510251e-001
1.16258001e+000, 2.46386006e-001, -7.82878697e-003, 1.15501285e+000, -3.50162908e-002, 2.81578720e-001
1.16258001e+000, 2.46386006e-001, -7.62878684e-003, 1.15504432e+000, -3.50524634e-002, 2.80647218e-001
1.16258001e+000, 2.46386006e-001, -7.42878672e-003, 1.15504754e+000, -3.50778401e-002, 2.79721260e-001
1.16258001e+000, 2.46386006e-001, -7.22878659e-003, 1.15487063e+000, -3.50350626e-002, 2.78828800e-001
1.16258001e+000, 2.46386006e-001, -7.02878647e-003, 1.15470362e+000, -3.49994749e-002, 2.77928561e-001
1.16258001e+000, 2.46386006e-001, -6.82878634e-003, 1.15453660e+000, -3.49638909e-002, 2.77028382e-001
1.16258001e+000, 2.46386006e-001, -6.62878621e-003, 1.15437043e+000, -3.49282250e-002, 2.76127964e-001
1.16258001e+000, 2.46386006e-001, -6.42878609e-003, 1.15425849e+000, -3.48877124e-002, 2.75217265e-001
1.16258001e+000, 2.46386006e-001, -6.22878596e-003, 1.15413880e+000, -3.48457918e-002, 2.74301887e-001
1.16258001e+000, 2.46386006e-001, -6.02878584e-003, 1.15398192e+000, -3.47965322e-002, 2.73362279e-001
1.16258001e+000, 2.46386006e-001, -5.82878571e-003, 1.15382516e+000, -3.47472690e-002, 2.72422671e-001
1.16258001e+000, 2.46386006e-001, -5.62878558e-003, 1.15366817e+000, -3.46980132e-002, 2.71483094e-001
1.16258001e+000, 2.46386006e-001, -5.42878546e-003, 1.15356231e+000, -3.46559808e-002, 2.70611614e-001
1.16258001e+000, 2.46386006e-001, -5.22878533e-003, 1.15346324e+000, -3.46149206e-002, 2.69749224e-001
1.16258001e+000, 2.46386006e-001, -5.02878521e-003, 1.15336394e+000, -3.45738530e-002, 2.68886715e-001
1.16258001e+000, 2.46386006e-001, -4.82878508e-003, 1.15326464e+000, -3.45327817e-002, 2.68024296e-001
1.16258001e+000, 2.46386006e-001, -4.62878495e-003, 1.15321052e+000, -3.45247202e-002, 2.67196715e-001
1.16258001e+000, 2.46386006e-001, -4.42878483e-003, 1.15319610e+000, -3.45451459e-002, 2.66399235e-001
1.16258001e+000, 2.46386006e-001, -4.22878470e-003, 1.15318096e+000, -3.45655829e-002, 2.65601814e-001
1.16258001e+000, 2.46386006e-001, -4.02878458e-003, 1.15316629e+000, -3.45860198e-002, 2.64804363e-001
1.16258001e+000, 2.46386006e-001, -3.82878445e-003, 1.15312779e+000, -3.46186869e-002, 2.64048845e-001
1.16258001e+000, 2.46386006e-001, -3.62878432e-003, 1.15307343e+000, -3.46538797e-002, 2.63292134e-001
1.16258001e+000, 2.46386006e-001, -3.42878420e-003, 1.15299809e+000, -3.46797183e-002, 2.62524456e-001
1.16258001e+000, 2.46386006e-001, -3.22878407e-003, 1.15281618e+000, -3.46566029e-002, 2.61699945e-001