TITLE = "21"
VARIABLES = "X" "Y" "Z" "u/Uinf" "v/Uinf" "w/Uinf"
ZONE T="21 case3a a0 medium, p1, wB, line 1"
 STRANDID=0, SOLUTIONTIME=0
 I=300, J=1, K=1, ZONETYPE=Ordered
 DATAPACKING=POINT
 DT=(SINGLE SINGLE SINGLE SINGLE SINGLE SINGLE )
 1.162579956E+03 2.463860016E+02 -6.002868652E+01 1.247380748E-01 1.993103474E-01 -1.634025201E-02
 1.162579956E+03 2.463860016E+02 -5.982868576E+01 1.372257173E-01 1.976459026E-01 -2.330972347E-03
 1.162579956E+03 2.463860016E+02 -5.962868500E+01 1.483733356E-01 1.940749735E-01 1.111492328E-02
 1.162579956E+03 2.463860016E+02 -5.942868423E+01 1.591572165E-01 1.893597543E-01 2.413859405E-02
 1.162579956E+03 2.463860016E+02 -5.922868347E+01 1.693681180E-01 1.842330247E-01 3.669653088E-02
 1.162579956E+03 2.463860016E+02 -5.902868652E+01 1.799453199E-01 1.784541607E-01 4.840884730E-02
 1.162579956E+03 2.463860016E+02 -5.882868576E+01 1.890047044E-01 1.731600761E-01 6.011059135E-02
 1.162579956E+03 2.463860016E+02 -5.862868500E+01 1.980129927E-01 1.678711027E-01 7.145524770E-02
 1.162579956E+03 2.463860016E+02 -5.842868423E+01 2.077711076E-01 1.618234664E-01 8.191329986E-02
 1.162579956E+03 2.463860016E+02 -5.822868347E+01 2.173950970E-01 1.558964700E-01 9.183929861E-02
 1.162579956E+03 2.463860016E+02 -5.802868652E+01 2.246345878E-01 1.512366682E-01 1.017497405E-01
 1.162579956E+03 2.463860016E+02 -5.782868576E+01 2.316790223E-01 1.467080861E-01 1.114236191E-01
 1.162579956E+03 2.463860016E+02 -5.762868500E+01 2.390937656E-01 1.418999881E-01 1.205240414E-01
 1.162579956E+03 2.463860016E+02 -5.742868423E+01 2.471008897E-01 1.367199421E-01 1.283959895E-01
 1.162579956E+03 2.463860016E+02 -5.722868347E+01 2.553271949E-01 1.316441745E-01 1.357424408E-01
 1.162579956E+03 2.463860016E+02 -5.702868652E+01 2.627642453E-01 1.270769536E-01 1.431369334E-01
 1.162579956E+03 2.463860016E+02 -5.682868576E+01 2.687410712E-01 1.232325360E-01 1.522425860E-01
 1.162579956E+03 2.463860016E+02 -5.662868500E+01 2.746765018E-01 1.195588261E-01 1.608503461E-01
 1.162579956E+03 2.463860016E+02 -5.642868423E+01 2.809599936E-01 1.157525182E-01 1.694174111E-01
 1.162579956E+03 2.463860016E+02 -5.622868347E+01 2.877660394E-01 1.115390733E-01 1.766811311E-01
 1.162579956E+03 2.463860016E+02 -5.602868652E+01 2.952241898E-01 1.067406386E-01 1.829333752E-01
 1.162579956E+03 2.463860016E+02 -5.582868576E+01 3.028267622E-01 1.023286283E-01 1.868015379E-01
 1.162579956E+03 2.463860016E+02 -5.562868500E+01 3.097473085E-01 9.804841131E-02 1.911558956E-01
 1.162579956E+03 2.463860016E+02 -5.542868423E+01 3.161301315E-01 9.404301643E-02 1.961114109E-01
 1.162579956E+03 2.463860016E+02 -5.522868347E+01 3.187428713E-01 9.245441109E-02 2.008471936E-01
 1.162579956E+03 2.463860016E+02 -5.502868652E+01 3.211412430E-01 9.096102417E-02 2.054532170E-01
 1.162579956E+03 2.463860016E+02 -5.482868576E+01 3.238993585E-01 8.900886774E-02 2.094958872E-01
 1.162579956E+03 2.463860016E+02 -5.462868500E+01 3.278170824E-01 8.598532528E-02 2.122102231E-01
 1.162579956E+03 2.463860016E+02 -5.442868423E+01 3.341259062E-01 8.140408248E-02 2.129657865E-01
 1.162579956E+03 2.463860016E+02 -5.422868347E+01 3.402408957E-01 7.678776234E-02 2.138300091E-01
 1.162579956E+03 2.463860016E+02 -5.402868652E+01 3.445872366E-01 7.219984382E-02 2.158036232E-01
 1.162579956E+03 2.463860016E+02 -5.382868576E+01 3.478844166E-01 6.924612820E-02 2.189830542E-01
 1.162579956E+03 2.463860016E+02 -5.362868500E+01 3.511815965E-01 6.629241258E-02 2.221625000E-01
 1.162579956E+03 2.463860016E+02 -5.342868423E+01 3.544787765E-01 6.333869696E-02 2.253419310E-01
 1.162579956E+03 2.463860016E+02 -5.322868347E+01 3.577759862E-01 6.038498133E-02 2.285213768E-01
 1.162579956E+03 2.463860016E+02 -5.302868652E+01 3.610881865E-01 5.735846236E-02 2.318396717E-01
 1.162579956E+03 2.463860016E+02 -5.282868576E+01 3.646349907E-01 5.320014432E-02 2.373157740E-01
 1.162579956E+03 2.463860016E+02 -5.262868500E+01 3.678729534E-01 4.881714284E-02 2.420569509E-01
 1.162579956E+03 2.463860016E+02 -5.242868423E+01 3.690430522E-01 4.476610944E-02 2.445120513E-01
 1.162579956E+03 2.463860016E+02 -5.222868347E+01 3.681554794E-01 4.228063673E-02 2.465238571E-01
 1.162579956E+03 2.463860016E+02 -5.202868652E+01 3.754485548E-01 3.944965452E-02 2.512112558E-01
 1.162579956E+03 2.463860016E+02 -5.182868576E+01 3.867866993E-01 3.330653533E-02 2.538856268E-01
 1.162579956E+03 2.463860016E+02 -5.162868500E+01 4.095111489E-01 2.924581431E-02 2.608255744E-01
 1.162579956E+03 2.463860016E+02 -5.142868423E+01 4.351859391E-01 2.530030347E-02 2.676740885E-01
 1.162579956E+03 2.463860016E+02 -5.122868347E+01 4.608606994E-01 2.135479078E-02 2.745226324E-01
 1.162579956E+03 2.463860016E+02 -5.102868652E+01 4.865349829E-01 1.740935445E-02 2.813710272E-01
 1.162579956E+03 2.463860016E+02 -5.082868576E+01 5.128153563E-01 1.355645712E-02 2.881046236E-01
 1.162579956E+03 2.463860016E+02 -5.062868500E+01 5.399721861E-01 9.837614372E-03 2.946718335E-01
 1.162579956E+03 2.463860016E+02 -5.042868423E+01 5.671290755E-01 6.118771154E-03 3.012390435E-01
 1.162579956E+03 2.463860016E+02 -5.022868347E+01 5.942859650E-01 2.399928402E-03 3.078062534E-01
 1.162579956E+03 2.463860016E+02 -5.002868652E+01 6.214423180E-01 -1.318843453E-03 3.143733144E-01
 1.162579956E+03 2.463860016E+02 -4.982868576E+01 6.580579281E-01 -5.433981307E-03 3.216121197E-01
 1.162579956E+03 2.463860016E+02 -4.962868500E+01 6.863735914E-01 -7.413860876E-03 3.292570114E-01
 1.162579956E+03 2.463860016E+02 -4.942868423E+01 7.093628049E-01 -8.362323977E-03 3.369737267E-01
 1.162579956E+03 2.463860016E+02 -4.922868347E+01 7.323519588E-01 -9.310787544E-03 3.446904719E-01
 1.162579956E+03 2.463860016E+02 -4.902868652E+01 7.553406954E-01 -1.025923248E-02 3.524070680E-01
 1.162579956E+03 2.463860016E+02 -4.882868576E+01 7.789196968E-01 -1.116347127E-02 3.605239689E-01
 1.162579956E+03 2.463860016E+02 -4.862868500E+01 8.224604130E-01 -1.057106443E-02 3.821819127E-01
 1.162579956E+03 2.463860016E+02 -4.842868423E+01 8.630030155E-01 -1.161349565E-02 4.032005072E-01
 1.162579956E+03 2.463860016E+02 -4.822868347E+01 9.033566117E-01 -1.275898144E-02 4.241787791E-01
 1.162579956E+03 2.463860016E+02 -4.802868652E+01 9.437094331E-01 -1.390444580E-02 4.451566637E-01
 1.162579956E+03 2.463860016E+02 -4.782868576E+01 9.597423077E-01 -1.168209407E-02 4.539869428E-01
 1.162579956E+03 2.463860016E+02 -4.762868500E+01 9.635925889E-01 -7.772742771E-03 4.567320943E-01
 1.162579956E+03 2.463860016E+02 -4.742868423E+01 9.828978777E-01 -6.191716064E-03 4.710890651E-01
 1.162579956E+03 2.463860016E+02 -4.722868347E+01 1.011034012E+00 -6.513084751E-03 4.913280308E-01
 1.162579956E+03 2.463860016E+02 -4.702868652E+01 1.021056771E+00 -4.952129908E-03 4.968439937E-01
 1.162579956E+03 2.463860016E+02 -4.682868576E+01 1.031079769E+00 -3.391145030E-03 5.023600459E-01
 1.162579956E+03 2.463860016E+02 -4.662868500E+01 1.041102648E+00 -1.830160036E-03 5.078760982E-01
 1.162579956E+03 2.463860016E+02 -4.642868423E+01 1.051125646E+00 -2.691751288E-04 5.133921504E-01
 1.162579956E+03 2.463860016E+02 -4.622868347E+01 1.061148643E+00 1.291809720E-03 5.189082026E-01
 1.162579956E+03 2.463860016E+02 -4.602868652E+01 1.071171403E+00 2.852764912E-03 5.244241357E-01
 1.162579956E+03 2.463860016E+02 -4.582868576E+01 1.080927491E+00 4.342060070E-03 5.297890902E-01
 1.162579956E+03 2.463860016E+02 -4.562868500E+01 1.082425117E+00 3.612551605E-03 5.304774046E-01
 1.162579956E+03 2.463860016E+02 -4.542868423E+01 1.083922744E+00 2.883043140E-03 5.311657786E-01
 1.162579956E+03 2.463860016E+02 -4.522868347E+01 1.085420251E+00 2.153534675E-03 5.318540931E-01
 1.162579956E+03 2.463860016E+02 -4.502868652E+01 1.084136248E+00 7.362838951E-04 5.286709666E-01
 1.162579956E+03 2.463860016E+02 -4.482868576E+01 1.081514120E+00 -1.011839253E-03 5.236253738E-01
 1.162579956E+03 2.463860016E+02 -4.462868500E+01 1.079977751E+00 -2.287791111E-03 5.197224021E-01
 1.162579956E+03 2.463860016E+02 -4.442868423E+01 1.081089020E+00 -2.412564587E-03 5.186051726E-01
 1.162579956E+03 2.463860016E+02 -4.422868347E+01 1.082200289E+00 -2.537338296E-03 5.174879432E-01
 1.162579956E+03 2.463860016E+02 -4.402868652E+01 1.083536029E+00 -2.535519656E-03 5.165716410E-01
 1.162579956E+03 2.463860016E+02 -4.382868576E+01 1.085008383E+00 -2.456734655E-03 5.157774687E-01
 1.162579956E+03 2.463860016E+02 -4.362868500E+01 1.087467194E+00 -1.789923990E-03 5.147677064E-01
 1.162579956E+03 2.463860016E+02 -4.342868423E+01 1.090297461E+00 -9.017880657E-04 5.136767626E-01
 1.162579956E+03 2.463860016E+02 -4.322868347E+01 1.093127608E+00 -1.365212393E-05 5.125858188E-01
 1.162579956E+03 2.463860016E+02 -4.302868652E+01 1.095957756E+00 8.744669030E-04 5.114949346E-01
 1.162579956E+03 2.463860016E+02 -4.282868576E+01 1.099074244E+00 1.875355490E-03 5.107035637E-01
 1.162579956E+03 2.463860016E+02 -4.262868500E+01 1.102325559E+00 2.929325448E-03 5.100531578E-01
 1.162579956E+03 2.463860016E+02 -4.242868423E+01 1.105576873E+00 3.983295523E-03 5.094027519E-01
 1.162579956E+03 2.463860016E+02 -4.222868347E+01 1.108828187E+00 5.037265364E-03 5.087523460E-01
 1.162579956E+03 2.463860016E+02 -4.202868652E+01 1.109954953E+00 4.771305714E-03 5.067755580E-01
 1.162579956E+03 2.463860016E+02 -4.182868576E+01 1.109506726E+00 3.846157808E-03 5.038306117E-01
 1.162579956E+03 2.463860016E+02 -4.162868500E+01 1.109048843E+00 2.920542145E-03 5.008798838E-01
 1.162579956E+03 2.463860016E+02 -4.142868423E+01 1.108590841E+00 1.994926482E-03 4.979291856E-01
 1.162579956E+03 2.463860016E+02 -4.122868347E+01 1.108132958E+00 1.069311053E-03 4.949784577E-01
 1.162579956E+03 2.463860016E+02 -4.102868652E+01 1.107458830E+00 1.320518932E-04 4.922828376E-01
 1.162579956E+03 2.463860016E+02 -4.082868576E+01 1.106865406E+00 -8.263987838E-04 4.896734953E-01
 1.162579956E+03 2.463860016E+02 -4.062868500E+01 1.106844783E+00 -1.924134791E-03 4.875993431E-01
 1.162579956E+03 2.463860016E+02 -4.042868423E+01 1.106824160E+00 -3.021870973E-03 4.855252206E-01
 1.162579956E+03 2.463860016E+02 -4.022868347E+01 1.106803536E+00 -4.119606689E-03 4.834510982E-01
 1.162579956E+03 2.463860016E+02 -4.002868652E+01 1.106783032E+00 -5.217322148E-03 4.813770056E-01
 1.162579956E+03 2.463860016E+02 -3.982868576E+01 1.106762409E+00 -6.315058097E-03 4.793028831E-01
 1.162579956E+03 2.463860016E+02 -3.962868500E+01 1.106741786E+00 -7.412794046E-03 4.772287607E-01
 1.162579956E+03 2.463860016E+02 -3.942868423E+01 1.106721163E+00 -8.510529995E-03 4.751546383E-01
 1.162579956E+03 2.463860016E+02 -3.922868347E+01 1.106700540E+00 -9.608265944E-03 4.730805159E-01
 1.162579956E+03 2.463860016E+02 -3.902868652E+01 1.107026219E+00 -1.079887059E-02 4.711543620E-01
 1.162579956E+03 2.463860016E+02 -3.882868576E+01 1.107608199E+00 -1.205825619E-02 4.693377316E-01
 1.162579956E+03 2.463860016E+02 -3.862868500E+01 1.108190298E+00 -1.331764273E-02 4.675211012E-01
 1.162579956E+03 2.463860016E+02 -3.842868423E+01 1.108772397E+00 -1.457702834E-02 4.657044411E-01
 1.162579956E+03 2.463860016E+02 -3.822868347E+01 1.109354377E+00 -1.583641581E-02 4.638878107E-01
 1.162579956E+03 2.463860016E+02 -3.802868652E+01 1.110168457E+00 -1.659662463E-02 4.623101652E-01
 1.162579956E+03 2.463860016E+02 -3.782868576E+01 1.111114383E+00 -1.707324572E-02 4.608683288E-01
 1.162579956E+03 2.463860016E+02 -3.762868500E+01 1.112060189E+00 -1.754986681E-02 4.594264627E-01
 1.162579956E+03 2.463860016E+02 -3.742868423E+01 1.113006115E+00 -1.802648976E-02 4.579845965E-01
 1.162579956E+03 2.463860016E+02 -3.722868347E+01 1.113594770E+00 -1.809479669E-02 4.556581080E-01
 1.162579956E+03 2.463860016E+02 -3.702868652E+01 1.114178419E+00 -1.815736853E-02 4.533192217E-01
 1.162579956E+03 2.463860016E+02 -3.682868576E+01 1.114762068E+00 -1.821993850E-02 4.509802759E-01
 1.162579956E+03 2.463860016E+02 -3.662868500E+01 1.115345836E+00 -1.828251034E-02 4.486413598E-01
 1.162579956E+03 2.463860016E+02 -3.642868423E+01 1.115875363E+00 -1.837124117E-02 4.463070035E-01
 1.162579956E+03 2.463860016E+02 -3.622868347E+01 1.116377234E+00 -1.847330295E-02 4.439749718E-01
 1.162579956E+03 2.463860016E+02 -3.602868652E+01 1.116879225E+00 -1.857536100E-02 4.416429996E-01
 1.162579956E+03 2.463860016E+02 -3.582868576E+01 1.117381096E+00 -1.867742278E-02 4.393109679E-01
 1.162579956E+03 2.463860016E+02 -3.562868500E+01 1.117883086E+00 -1.877948456E-02 4.369789362E-01
 1.162579956E+03 2.463860016E+02 -3.542868423E+01 1.118655920E+00 -1.927704364E-02 4.355533421E-01
 1.162579956E+03 2.463860016E+02 -3.522868347E+01 1.119468093E+00 -1.983204857E-02 4.342593849E-01
 1.162579956E+03 2.463860016E+02 -3.502868652E+01 1.120280385E+00 -2.038704418E-02 4.329654574E-01
 1.162579956E+03 2.463860016E+02 -3.482868576E+01 1.121092558E+00 -2.094204910E-02 4.316715300E-01
 1.162579956E+03 2.463860016E+02 -3.462868500E+01 1.121904731E+00 -2.149705403E-02 4.303775728E-01
 1.162579956E+03 2.463860016E+02 -3.442868423E+01 1.122670174E+00 -2.203915454E-02 4.290643036E-01
 1.162579956E+03 2.463860016E+02 -3.422868347E+01 1.123393059E+00 -2.256957255E-02 4.277335405E-01
 1.162579956E+03 2.463860016E+02 -3.402868652E+01 1.124115944E+00 -2.309998125E-02 4.264028072E-01
 1.162579956E+03 2.463860016E+02 -3.382868576E+01 1.124789834E+00 -2.366738021E-02 4.250884056E-01
 1.162579956E+03 2.463860016E+02 -3.362868500E+01 1.125451565E+00 -2.424399555E-02 4.237780869E-01
 1.162579956E+03 2.463860016E+02 -3.342868423E+01 1.126113296E+00 -2.482061088E-02 4.224677980E-01
 1.162579956E+03 2.463860016E+02 -3.322868347E+01 1.126775146E+00 -2.539722621E-02 4.211574793E-01
 1.162579956E+03 2.463860016E+02 -3.302868652E+01 1.127436876E+00 -2.597383037E-02 4.198471904E-01
 1.162579956E+03 2.463860016E+02 -3.282868576E+01 1.128095984E+00 -2.655315399E-02 4.185368121E-01
 1.162579956E+03 2.463860016E+02 -3.262868500E+01 1.128715277E+00 -2.717320248E-02 4.172255099E-01
 1.162579956E+03 2.463860016E+02 -3.242868423E+01 1.129334569E+00 -2.779325098E-02 4.159141779E-01
 1.162579956E+03 2.463860016E+02 -3.222868347E+01 1.129953861E+00 -2.841330133E-02 4.146028459E-01
 1.162579956E+03 2.463860016E+02 -3.202868652E+01 1.130573153E+00 -2.903333865E-02 4.132915735E-01
 1.162579956E+03 2.463860016E+02 -3.182868576E+01 1.131192565E+00 -2.965338714E-02 4.119802415E-01
 1.162579956E+03 2.463860016E+02 -3.162868500E+01 1.131811857E+00 -3.027343564E-02 4.106689095E-01
 1.162579956E+03 2.463860016E+02 -3.142868423E+01 1.132431149E+00 -3.089348413E-02 4.093575776E-01
 1.162579956E+03 2.463860016E+02 -3.122868538E+01 1.133050442E+00 -3.151352704E-02 4.080462754E-01
 1.162579956E+03 2.463860016E+02 -3.102868462E+01 1.133669734E+00 -3.213357553E-02 4.067349434E-01
 1.162579956E+03 2.463860016E+02 -3.082868576E+01 1.134185553E+00 -3.254045546E-02 4.054062963E-01
 1.162579956E+03 2.463860016E+02 -3.062868500E+01 1.134680986E+00 -3.290557489E-02 4.040742218E-01
 1.162579956E+03 2.463860016E+02 -3.042868423E+01 1.135175705E+00 -3.326994926E-02 4.027421176E-01
 1.162579956E+03 2.463860016E+02 -3.022868538E+01 1.135492563E+00 -3.345622122E-02 4.014031291E-01
 1.162579956E+03 2.463860016E+02 -3.002868462E+01 1.135627031E+00 -3.343962878E-02 3.998096883E-01
 1.162579956E+03 2.463860016E+02 -2.982868576E+01 1.135725737E+00 -3.347166628E-02 3.985290229E-01
 1.162579956E+03 2.463860016E+02 -2.962868500E+01 1.135824442E+00 -3.350370377E-02 3.972483277E-01
 1.162579956E+03 2.463860016E+02 -2.942868423E+01 1.135929704E+00 -3.352617100E-02 3.959415853E-01
 1.162579956E+03 2.463860016E+02 -2.922868538E+01 1.136041284E+00 -3.353896365E-02 3.946084976E-01
 1.162579956E+03 2.463860016E+02 -2.902868462E+01 1.136152983E+00 -3.355176002E-02 3.932754099E-01
 1.162579956E+03 2.463860016E+02 -2.882868576E+01 1.136264682E+00 -3.356455266E-02 3.919423521E-01
 1.162579956E+03 2.463860016E+02 -2.862868500E+01 1.136376381E+00 -3.357734904E-02 3.906092346E-01
 1.162579956E+03 2.463860016E+02 -2.842868423E+01 1.136488080E+00 -3.359014168E-02 3.892761469E-01
 1.162579956E+03 2.463860016E+02 -2.822868538E+01 1.136599779E+00 -3.360293433E-02 3.879430890E-01
 1.162579956E+03 2.463860016E+02 -2.802868462E+01 1.136711478E+00 -3.361573070E-02 3.866100013E-01
 1.162579956E+03 2.463860016E+02 -2.782868576E+01 1.136823177E+00 -3.362852335E-02 3.852769136E-01
 1.162579956E+03 2.463860016E+02 -2.762868500E+01 1.136934757E+00 -3.364131972E-02 3.839438260E-01
 1.162579956E+03 2.463860016E+02 -2.742868423E+01 1.137046456E+00 -3.365411237E-02 3.826107383E-01
 1.162579956E+03 2.463860016E+02 -2.722868538E+01 1.137158155E+00 -3.366690874E-02 3.812776506E-01
 1.162579956E+03 2.463860016E+02 -2.702868462E+01 1.137269855E+00 -3.367970139E-02 3.799445629E-01
 1.162579956E+03 2.463860016E+02 -2.682868576E+01 1.137381554E+00 -3.369249776E-02 3.786114752E-01
 1.162579956E+03 2.463860016E+02 -2.662868500E+01 1.137493253E+00 -3.370529041E-02 3.772783875E-01
 1.162579956E+03 2.463860016E+02 -2.642868423E+01 1.137604952E+00 -3.371808305E-02 3.759452999E-01
 1.162579956E+03 2.463860016E+02 -2.622868538E+01 1.137769103E+00 -3.377846256E-02 3.745592237E-01
 1.162579956E+03 2.463860016E+02 -2.602868462E+01 1.137945056E+00 -3.384958580E-02 3.731611669E-01
 1.162579956E+03 2.463860016E+02 -2.582868576E+01 1.138121009E+00 -3.392070904E-02 3.717631102E-01
 1.162579956E+03 2.463860016E+02 -2.562868500E+01 1.138297081E+00 -3.399183229E-02 3.703650534E-01
 1.162579956E+03 2.463860016E+02 -2.542868423E+01 1.138473034E+00 -3.406295553E-02 3.689669669E-01
 1.162579956E+03 2.463860016E+02 -2.522868538E+01 1.138649106E+00 -3.413407877E-02 3.675689399E-01
 1.162579956E+03 2.463860016E+02 -2.502868462E+01 1.138825059E+00 -3.420520201E-02 3.661708534E-01
 1.162579956E+03 2.463860016E+02 -2.482868576E+01 1.138968825E+00 -3.424932435E-02 3.647912443E-01
 1.162579956E+03 2.463860016E+02 -2.462868500E+01 1.138862133E+00 -3.408316895E-02 3.635552526E-01
 1.162579956E+03 2.463860016E+02 -2.442868423E+01 1.138755441E+00 -3.391701728E-02 3.623192608E-01
 1.162579956E+03 2.463860016E+02 -2.422868538E+01 1.138648748E+00 -3.375086188E-02 3.610832691E-01
 1.162579956E+03 2.463860016E+02 -2.402868462E+01 1.138542056E+00 -3.358470649E-02 3.598472774E-01
 1.162579956E+03 2.463860016E+02 -2.382868576E+01 1.138663173E+00 -3.362657502E-02 3.584882319E-01
 1.162579956E+03 2.463860016E+02 -2.362868500E+01 1.138820529E+00 -3.370157257E-02 3.571096361E-01
 1.162579956E+03 2.463860016E+02 -2.342868423E+01 1.138978004E+00 -3.377656639E-02 3.557310104E-01
 1.162579956E+03 2.463860016E+02 -2.322868538E+01 1.139116526E+00 -3.383773938E-02 3.543437421E-01
 1.162579956E+03 2.463860016E+02 -2.302868462E+01 1.139095306E+00 -3.378167748E-02 3.528830111E-01
 1.162579956E+03 2.463860016E+02 -2.282868576E+01 1.139074206E+00 -3.372561559E-02 3.514222801E-01
 1.162579956E+03 2.463860016E+02 -2.262868500E+01 1.139052987E+00 -3.366954997E-02 3.499615490E-01
 1.162579956E+03 2.463860016E+02 -2.242868423E+01 1.139031768E+00 -3.361348808E-02 3.485008180E-01
 1.162579956E+03 2.463860016E+02 -2.222868538E+01 1.139010549E+00 -3.355742618E-02 3.470400870E-01
 1.162579956E+03 2.463860016E+02 -2.202868462E+01 1.138989329E+00 -3.350136057E-02 3.455793560E-01
 1.162579956E+03 2.463860016E+02 -2.182868576E+01 1.138897657E+00 -3.344943002E-02 3.442638218E-01
 1.162579956E+03 2.463860016E+02 -2.162868500E+01 1.138647437E+00 -3.340680152E-02 3.432751000E-01
 1.162579956E+03 2.463860016E+02 -2.142868423E+01 1.138397098E+00 -3.336417302E-02 3.422863483E-01
 1.162579956E+03 2.463860016E+02 -2.122868538E+01 1.138146877E+00 -3.332154453E-02 3.412976265E-01
 1.162579956E+03 2.463860016E+02 -2.102868462E+01 1.138473511E+00 -3.347211704E-02 3.399602771E-01
 1.162579956E+03 2.463860016E+02 -2.082868576E+01 1.138843417E+00 -3.363717720E-02 3.385967910E-01
 1.162579956E+03 2.463860016E+02 -2.062868500E+01 1.139213443E+00 -3.380224109E-02 3.372333050E-01
 1.162579956E+03 2.463860016E+02 -2.042868423E+01 1.139583349E+00 -3.396730870E-02 3.358698189E-01
 1.162579956E+03 2.463860016E+02 -2.022868538E+01 1.139953375E+00 -3.413236886E-02 3.345063329E-01
 1.162579956E+03 2.463860016E+02 -2.002868462E+01 1.140323281E+00 -3.429743648E-02 3.331428170E-01
 1.162579956E+03 2.463860016E+02 -1.982868576E+01 1.140693188E+00 -3.446249664E-02 3.317793608E-01
 1.162579956E+03 2.463860016E+02 -1.962868500E+01 1.141063213E+00 -3.462756053E-02 3.304158449E-01
 1.162579956E+03 2.463860016E+02 -1.942868423E+01 1.141433120E+00 -3.479262814E-02 3.290523589E-01
 1.162579956E+03 2.463860016E+02 -1.922868538E+01 1.141803145E+00 -3.495768830E-02 3.276888728E-01
 1.162579956E+03 2.463860016E+02 -1.902868462E+01 1.141951323E+00 -3.503003344E-02 3.264598250E-01
 1.162579956E+03 2.463860016E+02 -1.882868576E+01 1.142075062E+00 -3.509212658E-02 3.252456188E-01
 1.162579956E+03 2.463860016E+02 -1.862868500E+01 1.142096162E+00 -3.515118361E-02 3.240499794E-01
 1.162579956E+03 2.463860016E+02 -1.842868423E+01 1.141878963E+00 -3.520317376E-02 3.228975236E-01
 1.162579956E+03 2.463860016E+02 -1.822868538E+01 1.141661882E+00 -3.525516391E-02 3.217450678E-01
 1.162579956E+03 2.463860016E+02 -1.802868462E+01 1.141444683E+00 -3.530715778E-02 3.205926120E-01
 1.162579956E+03 2.463860016E+02 -1.782868576E+01 1.141227484E+00 -3.535914794E-02 3.194401562E-01
 1.162579956E+03 2.463860016E+02 -1.762868500E+01 1.141010284E+00 -3.541113809E-02 3.182877004E-01
 1.162579956E+03 2.463860016E+02 -1.742868423E+01 1.140793085E+00 -3.546313196E-02 3.171352446E-01
 1.162579956E+03 2.463860016E+02 -1.722868538E+01 1.140575886E+00 -3.551512212E-02 3.159827888E-01
 1.162579956E+03 2.463860016E+02 -1.702868462E+01 1.140358686E+00 -3.556711227E-02 3.148303330E-01
 1.162579956E+03 2.463860016E+02 -1.682868576E+01 1.140314579E+00 -3.565723449E-02 3.136035502E-01
 1.162579956E+03 2.463860016E+02 -1.662868500E+01 1.140283346E+00 -3.575020283E-02 3.123712242E-01
 1.162579956E+03 2.463860016E+02 -1.642868423E+01 1.140251994E+00 -3.584317490E-02 3.111388981E-01
 1.162579956E+03 2.463860016E+02 -1.622868538E+01 1.140220761E+00 -3.593614325E-02 3.099065721E-01
 1.162579956E+03 2.463860016E+02 -1.602868462E+01 1.140189528E+00 -3.602911532E-02 3.086742163E-01
 1.162579956E+03 2.463860016E+02 -1.582868481E+01 1.140158296E+00 -3.612208366E-02 3.074418902E-01
 1.162579956E+03 2.463860016E+02 -1.562868500E+01 1.140131474E+00 -3.620551154E-02 3.062362969E-01
 1.162579956E+03 2.463860016E+02 -1.542868519E+01 1.140143514E+00 -3.620626032E-02 3.052620590E-01
 1.162579956E+03 2.463860016E+02 -1.522868443E+01 1.140155435E+00 -3.620700911E-02 3.042878211E-01
 1.162579956E+03 2.463860016E+02 -1.502868462E+01 1.140167475E+00 -3.620775416E-02 3.033135831E-01
 1.162579956E+03 2.463860016E+02 -1.482868481E+01 1.140179396E+00 -3.620850295E-02 3.023393750E-01
 1.162579956E+03 2.463860016E+02 -1.462868500E+01 1.140191436E+00 -3.620925173E-02 3.013651371E-01
 1.162579956E+03 2.463860016E+02 -1.442868519E+01 1.140201688E+00 -3.620667011E-02 3.004299998E-01
 1.162579956E+03 2.463860016E+02 -1.422868443E+01 1.140205383E+00 -3.619044647E-02 2.996550202E-01
 1.162579956E+03 2.463860016E+02 -1.402868462E+01 1.140209079E+00 -3.617422283E-02 2.988800406E-01
 1.162579956E+03 2.463860016E+02 -1.382868481E+01 1.140212774E+00 -3.615799546E-02 2.981050909E-01
 1.162579956E+03 2.463860016E+02 -1.362868500E+01 1.140216470E+00 -3.614177182E-02 2.973301113E-01
 1.162579956E+03 2.463860016E+02 -1.342868519E+01 1.140220165E+00 -3.612554446E-02 2.965551615E-01
 1.162579956E+03 2.463860016E+02 -1.322868443E+01 1.140223861E+00 -3.610932082E-02 2.957801819E-01
 1.162579956E+03 2.463860016E+02 -1.302868462E+01 1.140227556E+00 -3.609309718E-02 2.950052321E-01
 1.162579956E+03 2.463860016E+02 -1.282868481E+01 1.140231252E+00 -3.607686982E-02 2.942302525E-01
 1.162579956E+03 2.463860016E+02 -1.262868500E+01 1.140234947E+00 -3.606064618E-02 2.934553027E-01
 1.162579956E+03 2.463860016E+02 -1.242868519E+01 1.140238643E+00 -3.604441881E-02 2.926803231E-01
 1.162579956E+03 2.463860016E+02 -1.222868443E+01 1.140242338E+00 -3.602819517E-02 2.919053435E-01
 1.162579956E+03 2.463860016E+02 -1.202868462E+01 1.140246034E+00 -3.601197153E-02 2.911303937E-01
 1.162579956E+03 2.463860016E+02 -1.182868481E+01 1.140249729E+00 -3.599574417E-02 2.903554142E-01
 1.162579956E+03 2.463860016E+02 -1.162868500E+01 1.140253425E+00 -3.597952053E-02 2.895804644E-01
 1.162579956E+03 2.463860016E+02 -1.142868519E+01 1.140257001E+00 -3.596329689E-02 2.888054848E-01
 1.162579956E+03 2.463860016E+02 -1.122868443E+01 1.140260696E+00 -3.594706953E-02 2.880305350E-01
 1.162579956E+03 2.463860016E+02 -1.102868462E+01 1.140253544E+00 -3.595633805E-02 2.872156799E-01
 1.162579956E+03 2.463860016E+02 -1.082868481E+01 1.140232205E+00 -3.603554145E-02 2.862963080E-01
 1.162579956E+03 2.463860016E+02 -1.062868500E+01 1.140175939E+00 -3.599539027E-02 2.852202356E-01
 1.162579956E+03 2.463860016E+02 -1.042868519E+01 1.140012860E+00 -3.587301821E-02 2.839186192E-01
 1.162579956E+03 2.463860016E+02 -1.022868443E+01 1.139849782E+00 -3.575064242E-02 2.826170325E-01
 1.162579956E+03 2.463860016E+02 -1.002868462E+01 1.139686584E+00 -3.562827036E-02 2.813154459E-01
 1.162579956E+03 2.463860016E+02 -9.828684807E+00 1.139523506E+00 -3.550589457E-02 2.800138593E-01
 1.162579956E+03 2.463860016E+02 -9.628684998E+00 1.139374852E+00 -3.540150821E-02 2.788099349E-01
 1.162579956E+03 2.463860016E+02 -9.428685188E+00 1.139232516E+00 -3.530506417E-02 2.776492238E-01
 1.162579956E+03 2.463860016E+02 -9.228684425E+00 1.139090300E+00 -3.520862386E-02 2.764884830E-01
 1.162579956E+03 2.463860016E+02 -9.028684616E+00 1.138947964E+00 -3.511218354E-02 2.753277421E-01
 1.162579956E+03 2.463860016E+02 -8.828684807E+00 1.138805747E+00 -3.501573950E-02 2.741670012E-01
 1.162579956E+03 2.463860016E+02 -8.628684998E+00 1.138663411E+00 -3.491929919E-02 2.730062902E-01
 1.162579956E+03 2.463860016E+02 -8.428685188E+00 1.138521194E+00 -3.482285887E-02 2.718455493E-01
 1.162579956E+03 2.463860016E+02 -8.228684425E+00 1.138378859E+00 -3.472641483E-02 2.706848085E-01
 1.162579956E+03 2.463860016E+02 -8.028684616E+00 1.138288260E+00 -3.469437733E-02 2.698738873E-01
 1.162579956E+03 2.463860016E+02 -7.828684807E+00 1.138206124E+00 -3.467274457E-02 2.691195309E-01
 1.162579956E+03 2.463860016E+02 -7.628684998E+00 1.138123870E+00 -3.465111554E-02 2.683651447E-01
 1.162579956E+03 2.463860016E+02 -7.428684711E+00 1.138041615E+00 -3.462948278E-02 2.676107585E-01
 1.162579956E+03 2.463860016E+02 -7.228684902E+00 1.137959361E+00 -3.460785002E-02 2.668564022E-01
 1.162579956E+03 2.463860016E+02 -7.028684616E+00 1.137877226E+00 -3.458622098E-02 2.661020160E-01
 1.162579956E+03 2.463860016E+02 -6.828684807E+00 1.137794971E+00 -3.456458822E-02 2.653476298E-01
 1.162579956E+03 2.463860016E+02 -6.628684998E+00 1.137712717E+00 -3.454295918E-02 2.645932734E-01
 1.162579956E+03 2.463860016E+02 -6.428684711E+00 1.137630582E+00 -3.452132642E-02 2.638388872E-01
 1.162579956E+03 2.463860016E+02 -6.228684902E+00 1.137548327E+00 -3.449969739E-02 2.630845010E-01
 1.162579956E+03 2.463860016E+02 -6.028684616E+00 1.137466073E+00 -3.447806463E-02 2.623301446E-01
 1.162579956E+03 2.463860016E+02 -5.828684807E+00 1.137383819E+00 -3.445643187E-02 2.615757585E-01
 1.162579956E+03 2.463860016E+02 -5.628684998E+00 1.137301683E+00 -3.443480283E-02 2.608213723E-01
 1.162579956E+03 2.463860016E+02 -5.428684711E+00 1.137219429E+00 -3.441317007E-02 2.600670159E-01
 1.162579956E+03 2.463860016E+02 -5.228684902E+00 1.137137175E+00 -3.439154103E-02 2.593126297E-01
 1.162579956E+03 2.463860016E+02 -5.028684616E+00 1.137061954E+00 -3.437425569E-02 2.585693598E-01
 1.162579956E+03 2.463860016E+02 -4.828684807E+00 1.137010932E+00 -3.437199071E-02 2.578645349E-01
 1.162579956E+03 2.463860016E+02 -4.628684998E+00 1.136959910E+00 -3.436972201E-02 2.571597099E-01
 1.162579956E+03 2.463860016E+02 -4.428684711E+00 1.136826277E+00 -3.436926007E-02 2.564551830E-01
 1.162579956E+03 2.463860016E+02 -4.228684902E+00 1.136653662E+00 -3.436964378E-02 2.557508051E-01
 1.162579956E+03 2.463860016E+02 -4.028684616E+00 1.136481047E+00 -3.437003121E-02 2.550464272E-01
 1.162579956E+03 2.463860016E+02 -3.828684807E+00 1.136308432E+00 -3.437041491E-02 2.543420494E-01
 1.162579956E+03 2.463860016E+02 -3.628684759E+00 1.136135817E+00 -3.437079862E-02 2.536376715E-01
 1.162579956E+03 2.463860016E+02 -3.428684950E+00 1.135963202E+00 -3.437118605E-02 2.529332936E-01
 1.162579956E+03 2.463860016E+02 -3.228684902E+00 1.135790586E+00 -3.437156975E-02 2.522289157E-01
 1.162579956E+03 2.463860016E+02 -3.028684855E+00 1.135681033E+00 -3.434767202E-02 2.514930665E-01
 1.162579956E+03 2.463860016E+02 -2.828684807E+00 1.135973334E+00 -3.416898847E-02 2.505567074E-01
 1.162579956E+03 2.463860016E+02 -2.628684759E+00 1.136265635E+00 -3.399030492E-02 2.496203333E-01
 1.162579956E+03 2.463860016E+02 -2.428684950E+00 1.136386752E+00 -3.384956717E-02 2.487481236E-01
 1.162579956E+03 2.463860016E+02 -2.228684902E+00 1.136052847E+00 -3.380972892E-02 2.480465025E-01
 1.162579956E+03 2.463860016E+02 -2.028684855E+00 1.135718822E+00 -3.376989439E-02 2.473448813E-01
 1.162579956E+03 2.463860016E+02 -1.828684807E+00 1.135384917E+00 -3.373005614E-02 2.466432601E-01
 1.162579956E+03 2.463860016E+02 -1.628684878E+00 1.135051012E+00 -3.369021788E-02 2.459416389E-01
 1.162579956E+03 2.463860016E+02 -1.428684831E+00 1.134864211E+00 -3.368374705E-02 2.452414185E-01
 1.162579956E+03 2.463860016E+02 -1.228684902E+00 1.134839773E+00 -3.371407837E-02 2.445427179E-01
 1.162579956E+03 2.463860016E+02 -1.028684855E+00 1.134815335E+00 -3.374440968E-02 2.438440174E-01
 1.162579956E+03 2.463860016E+02 -8.286848664E-01 1.134790897E+00 -3.377474099E-02 2.431453168E-01
 1.162579956E+03 2.463860016E+02 -6.286848783E-01 1.134766579E+00 -3.380506858E-02 2.424466163E-01
 1.162579956E+03 2.463860016E+02 -4.286848605E-01 1.134742141E+00 -3.383539990E-02 2.417479157E-01
 1.162579956E+03 2.463860016E+02 -2.286848426E-01 1.134717703E+00 -3.386573121E-02 2.410492152E-01
ZONE T="21 case3a a0 medium, p1, wB, line 2"
 STRANDID=0, SOLUTIONTIME=0
 I=300, J=1, K=1, ZONETYPE=Ordered