#++++++++++++++++++++++++++++++++++++++++++++++++++++++++++++++++++++++++++++++++++++++++++++++++++++++++++++++++++++++++++++++++++++++
#
#   HiLiftPW-2 Velocity DATA SUBMITTAL FORM Case 1 (Version 1), March 2013
#
#   CASE 1 is a required grid convergence study at high-Reynolds number conditions.
#   Config 2 (without Slat Tracks or Flap Track Fairings) should be used.
#   Two ALPHAs (7 and 16 deg) are required.
#   Four additional ALPHAs (18.5, 20, 21, and 22.4) are optional.
#   This case should be run FULLY TURBULENT (no forced transition).
#
#   This data file only asks for a subset of information to be reported: AoA=7, 18.5, and 21 on medium and fine grids
#
#       NOMENCLATURE:
#              ALPHA:	Angle of attack, deg.
#                 FT:   Fully Turbulent
#                 TR:   Transition specified or computed
#              X,Y,Z:   Cartesian coordinates, in mm
#             u/Uinf:   Velocity component in X-direction relative to freestream
#             v/Uinf:   Velocity component in Y-direction relative to freestream
#             w/Uinf:   Velocity component in Z-direction relative to freestream
#
#                016:	Participant ID (To be assigned by HiLiftPW-1 workshop committee)
#
#    FLOW CONDITIONS:
#                 Mach Number: 0.175
#             Reynolds Number: 15.1 million (based on MAC)
#             Freestream Temp: 114.0 K (205.2 R)
#  Freestream Static Pressure: 295000 Pa (42.7861 psi)
#
#              NOTES: 1. All numerical data fields can be free-formatted
#                     2. Please use at least 3 decimal places in the numerical values for velocity
#                     3. If optional data is NOT provided, please fill data fields with a numerical value of "-999" 
#                     4. Results are requested for both medium and fine grids
#                     5. There are no experimental velocity data for these high-Re conditions
#
#++++++++++++++++++++++++++++++++++++++++++++++++++++++++++++++++++++++++++++++++++++++++++++++++++++++++++++++++++++++++++++++++++++++

TITLE = "016.2"

VARIABLES = "X" "Y" "Z" "u/Uinf" "v/Uinf" "w/Uinf"

#-----------------------------------------------------------------------------------
# ALPHA 7, medium grid:
#-----------------------------------------------------------------------------------
ZONE T="016.2 case1 a7 medium, p1, wB, line 1"
 STRANDID=0, SOLUTIONTIME=0
 I=300, J=1, K=1, ZONETYPE=Ordered
 DATAPACKING=POINT
 DT=(SINGLE SINGLE SINGLE SINGLE SINGLE SINGLE )
 1.162579956E+03 2.463860016E+02 -6.002868652E+01 5.521630645E-01 -4.843846709E-02 9.732738733E-01
 1.162579956E+03 2.463860016E+02 -5.982868576E+01 5.841273665E-01 -4.129626229E-02 1.017853260E+00
 1.162579956E+03 2.463860016E+02 -5.962868500E+01 6.082702875E-01 -3.511340916E-02 1.047583461E+00
 1.162579956E+03 2.463860016E+02 -5.942868423E+01 6.270453930E-01 -2.950139716E-02 1.065560937E+00
 1.162579956E+03 2.463860016E+02 -5.922868347E+01 6.420404315E-01 -2.439839393E-02 1.077068210E+00
 1.162579956E+03 2.463860016E+02 -5.902868652E+01 6.545655131E-01 -1.962972246E-02 1.083577514E+00
 1.162579956E+03 2.463860016E+02 -5.882868576E+01 6.634400487E-01 -1.488642860E-02 1.082291603E+00
 1.162579956E+03 2.463860016E+02 -5.862868500E+01 6.725888848E-01 -9.903700091E-03 1.080799818E+00
 1.162579956E+03 2.463860016E+02 -5.842868423E+01 6.784546375E-01 -5.493032746E-03 1.074239373E+00
 1.162579956E+03 2.463860016E+02 -5.822868347E+01 6.832773685E-01 -8.672990371E-04 1.066324234E+00
 1.162579956E+03 2.463860016E+02 -5.802868652E+01 6.876063943E-01 3.938931040E-03 1.057835698E+00
 1.162579956E+03 2.463860016E+02 -5.782868576E+01 6.914214492E-01 9.012443013E-03 1.048678160E+00
 1.162579956E+03 2.463860016E+02 -5.762868500E+01 6.949384212E-01 1.419183705E-02 1.039579511E+00
 1.162579956E+03 2.463860016E+02 -5.742868423E+01 6.982707977E-01 1.961885951E-02 1.030143142E+00
 1.162579956E+03 2.463860016E+02 -5.722868347E+01 7.014008760E-01 2.512252517E-02 1.021037579E+00
 1.162579956E+03 2.463860016E+02 -5.702868652E+01 7.044266462E-01 3.092339076E-02 1.011680603E+00
 1.162579956E+03 2.463860016E+02 -5.682868576E+01 7.074125409E-01 3.664225712E-02 1.002758503E+00
 1.162579956E+03 2.463860016E+02 -5.662868500E+01 7.102856040E-01 4.271147773E-02 9.938728809E-01
 1.162579956E+03 2.463860016E+02 -5.642868423E+01 7.132055163E-01 4.870543629E-02 9.850274920E-01
 1.162579956E+03 2.463860016E+02 -5.622868347E+01 7.160645723E-01 5.478789657E-02 9.766991735E-01
 1.162579956E+03 2.463860016E+02 -5.602868652E+01 7.188998461E-01 6.118015572E-02 9.683257341E-01
 1.162579956E+03 2.463860016E+02 -5.582868576E+01 7.217753530E-01 6.745170802E-02 9.600240588E-01
 1.162579956E+03 2.463860016E+02 -5.562868500E+01 7.246403098E-01 7.372762263E-02 9.522027373E-01
 1.162579956E+03 2.463860016E+02 -5.542868423E+01 7.275353074E-01 8.022670448E-02 9.445363283E-01
 1.162579956E+03 2.463860016E+02 -5.522868347E+01 7.304356694E-01 8.688558638E-02 9.367533326E-01
 1.162579956E+03 2.463860016E+02 -5.502868652E+01 7.333204150E-01 9.325349331E-02 9.291920066E-01
 1.162579956E+03 2.463860016E+02 -5.482868576E+01 7.362632155E-01 9.976223856E-02 9.222853184E-01
 1.162579956E+03 2.463860016E+02 -5.462868500E+01 7.392351627E-01 1.065353677E-01 9.151840806E-01
 1.162579956E+03 2.463860016E+02 -5.442868423E+01 7.422066331E-01 1.132930517E-01 9.080936909E-01
 1.162579956E+03 2.463860016E+02 -5.422868347E+01 7.451623678E-01 1.198142394E-01 9.012102485E-01
 1.162579956E+03 2.463860016E+02 -5.402868652E+01 7.481718063E-01 1.264482737E-01 8.949308395E-01
 1.162579956E+03 2.463860016E+02 -5.382868576E+01 7.511846423E-01 1.333430409E-01 8.884689808E-01
 1.162579956E+03 2.463860016E+02 -5.362868500E+01 7.542425394E-01 1.402989477E-01 8.819475770E-01
 1.162579956E+03 2.463860016E+02 -5.342868423E+01 7.572631836E-01 1.469395757E-01 8.756593466E-01
 1.162579956E+03 2.463860016E+02 -5.322868347E+01 7.602303028E-01 1.536955833E-01 8.698123097E-01
 1.162579956E+03 2.463860016E+02 -5.302868652E+01 7.631512880E-01 1.606430113E-01 8.639659882E-01
 1.162579956E+03 2.463860016E+02 -5.282868576E+01 7.662032843E-01 1.678082198E-01 8.579390049E-01
 1.162579956E+03 2.463860016E+02 -5.262868500E+01 7.691543698E-01 1.746903658E-01 8.521325588E-01
 1.162579956E+03 2.463860016E+02 -5.242868423E+01 7.719714046E-01 1.815371066E-01 8.465184569E-01
 1.162579956E+03 2.463860016E+02 -5.222868347E+01 7.745468616E-01 1.884863079E-01 8.410975933E-01
 1.162579956E+03 2.463860016E+02 -5.202868652E+01 7.772073746E-01 1.958268434E-01 8.354245424E-01
 1.162579956E+03 2.463860016E+02 -5.182868576E+01 7.797973156E-01 2.030425370E-01 8.298245668E-01
 1.162579956E+03 2.463860016E+02 -5.162868500E+01 7.823971510E-01 2.099860907E-01 8.244117498E-01
 1.162579956E+03 2.463860016E+02 -5.142868423E+01 7.841876745E-01 2.166631967E-01 8.188861012E-01
 1.162579956E+03 2.463860016E+02 -5.122868347E+01 7.859074473E-01 2.236444801E-01 8.131615520E-01
 1.162579956E+03 2.463860016E+02 -5.102868652E+01 7.877180576E-01 2.308522016E-01 8.074004054E-01
 1.162579956E+03 2.463860016E+02 -5.082868576E+01 7.894794345E-01 2.375617474E-01 8.018485904E-01
 1.162579956E+03 2.463860016E+02 -5.062868500E+01 7.907900810E-01 2.428905517E-01 7.957712412E-01
 1.162579956E+03 2.463860016E+02 -5.042868423E+01 7.916826010E-01 2.478380799E-01 7.892178893E-01
 1.162579956E+03 2.463860016E+02 -5.022868347E+01 7.923941612E-01 2.535249889E-01 7.825975418E-01
 1.162579956E+03 2.463860016E+02 -5.002868652E+01 7.934080958E-01 2.582606375E-01 7.761625051E-01
 1.162579956E+03 2.463860016E+02 -4.982868576E+01 7.958174944E-01 2.589927018E-01 7.691009045E-01
 1.162579956E+03 2.463860016E+02 -4.962868500E+01 7.980227470E-01 2.582537234E-01 7.611181736E-01
 1.162579956E+03 2.463860016E+02 -4.942868423E+01 7.996283174E-01 2.580486536E-01 7.528504133E-01
 1.162579956E+03 2.463860016E+02 -4.922868347E+01 8.028156757E-01 2.566370070E-01 7.454278469E-01
 1.162579956E+03 2.463860016E+02 -4.902868652E+01 8.150169849E-01 2.435769886E-01 7.386723757E-01
 1.162579956E+03 2.463860016E+02 -4.882868576E+01 8.236690164E-01 2.319765240E-01 7.298267484E-01
 1.162579956E+03 2.463860016E+02 -4.862868500E+01 8.350692987E-01 2.192098200E-01 7.225780487E-01
 1.162579956E+03 2.463860016E+02 -4.842868423E+01 8.622387052E-01 1.952954978E-01 7.211308479E-01
 1.162579956E+03 2.463860016E+02 -4.822868347E+01 8.897612691E-01 1.678362042E-01 7.176454067E-01
 1.162579956E+03 2.463860016E+02 -4.802868652E+01 9.202798009E-01 1.406954974E-01 7.168677449E-01
 1.162579956E+03 2.463860016E+02 -4.782868576E+01 9.724225998E-01 1.070252582E-01 7.291178703E-01
 1.162579956E+03 2.463860016E+02 -4.762868500E+01 1.024698257E+00 7.172753662E-02 7.402412891E-01
 1.162579956E+03 2.463860016E+02 -4.742868423E+01 1.080345511E+00 4.595093429E-02 7.602926493E-01
 1.162579956E+03 2.463860016E+02 -4.722868347E+01 1.143377900E+00 2.071616426E-02 7.858288288E-01
 1.162579956E+03 2.463860016E+02 -4.702868652E+01 1.189848542E+00 1.168586314E-02 8.090782166E-01
 1.162579956E+03 2.463860016E+02 -4.682868576E+01 1.233248234E+00 1.014550123E-02 8.340751529E-01
 1.162579956E+03 2.463860016E+02 -4.662868500E+01 1.248047709E+00 2.010353096E-02 8.441401124E-01
 1.162579956E+03 2.463860016E+02 -4.642868423E+01 1.250624895E+00 2.938720956E-02 8.446146250E-01
 1.162579956E+03 2.463860016E+02 -4.622868347E+01 1.246799469E+00 3.541631997E-02 8.385686874E-01
 1.162579956E+03 2.463860016E+02 -4.602868652E+01 1.245099068E+00 3.718769923E-02 8.326331973E-01
 1.162579956E+03 2.463860016E+02 -4.582868576E+01 1.243815660E+00 3.844060376E-02 8.269285560E-01
 1.162579956E+03 2.463860016E+02 -4.562868500E+01 1.243428946E+00 3.928704932E-02 8.217436075E-01
 1.162579956E+03 2.463860016E+02 -4.542868423E+01 1.243306160E+00 4.011587426E-02 8.167579770E-01
 1.162579956E+03 2.463860016E+02 -4.522868347E+01 1.245012164E+00 4.159372300E-02 8.133891821E-01
 1.162579956E+03 2.463860016E+02 -4.502868652E+01 1.247295141E+00 4.318813607E-02 8.106285930E-01
 1.162579956E+03 2.463860016E+02 -4.482868576E+01 1.249966502E+00 4.495626688E-02 8.082603812E-01
 1.162579956E+03 2.463860016E+02 -4.462868500E+01 1.253693819E+00 4.707596451E-02 8.065940738E-01
 1.162579956E+03 2.463860016E+02 -4.442868423E+01 1.257456303E+00 4.917901754E-02 8.049124479E-01
 1.162579956E+03 2.463860016E+02 -4.422868347E+01 1.260792732E+00 5.113470554E-02 8.030985594E-01
 1.162579956E+03 2.463860016E+02 -4.402868652E+01 1.263998270E+00 5.302163959E-02 8.012083173E-01
 1.162579956E+03 2.463860016E+02 -4.382868576E+01 1.267143965E+00 5.487120897E-02 7.992888093E-01
 1.162579956E+03 2.463860016E+02 -4.362868500E+01 1.269900560E+00 5.656372383E-02 7.971229553E-01
 1.162579956E+03 2.463860016E+02 -4.342868423E+01 1.272264957E+00 5.808373541E-02 7.946940064E-01
 1.162579956E+03 2.463860016E+02 -4.322868347E+01 1.274392724E+00 5.947408453E-02 7.921574116E-01
 1.162579956E+03 2.463860016E+02 -4.302868652E+01 1.276682019E+00 6.093982980E-02 7.898162603E-01
 1.162579956E+03 2.463860016E+02 -4.282868576E+01 1.278845906E+00 6.233333051E-02 7.875602245E-01
 1.162579956E+03 2.463860016E+02 -4.262868500E+01 1.280878186E+00 6.365341693E-02 7.851443887E-01
 1.162579956E+03 2.463860016E+02 -4.242868423E+01 1.282960057E+00 6.500903517E-02 7.825600505E-01
 1.162579956E+03 2.463860016E+02 -4.222868347E+01 1.285038710E+00 6.635990739E-02 7.801680565E-01
 1.162579956E+03 2.463860016E+02 -4.202868652E+01 1.287188649E+00 6.774850190E-02 7.777501941E-01
 1.162579956E+03 2.463860016E+02 -4.182868576E+01 1.289271593E+00 6.910377741E-02 7.752787471E-01
 1.162579956E+03 2.463860016E+02 -4.162868500E+01 1.291310310E+00 7.043941319E-02 7.728703618E-01
 1.162579956E+03 2.463860016E+02 -4.142868423E+01 1.293290496E+00 7.173430175E-02 7.705072761E-01
 1.162579956E+03 2.463860016E+02 -4.122868347E+01 1.295101523E+00 7.292362303E-02 7.681170702E-01
 1.162579956E+03 2.463860016E+02 -4.102868652E+01 1.297021747E+00 7.418440282E-02 7.657626867E-01
 1.162579956E+03 2.463860016E+02 -4.082868576E+01 1.298855901E+00 7.538028061E-02 7.635328174E-01
 1.162579956E+03 2.463860016E+02 -4.062868500E+01 1.300541282E+00 7.648136467E-02 7.612721324E-01
 1.162579956E+03 2.463860016E+02 -4.042868423E+01 1.302253723E+00 7.760538906E-02 7.589252591E-01
 1.162579956E+03 2.463860016E+02 -4.022868347E+01 1.303886175E+00 7.868791372E-02 7.564823031E-01
 1.162579956E+03 2.463860016E+02 -4.002868652E+01 1.305474401E+00 7.973582298E-02 7.540446520E-01
 1.162579956E+03 2.463860016E+02 -3.982868576E+01 1.307026505E+00 8.076848835E-02 7.515886426E-01
 1.162579956E+03 2.463860016E+02 -3.962868500E+01 1.308556676E+00 8.179979771E-02 7.491168380E-01
 1.162579956E+03 2.463860016E+02 -3.942868423E+01 1.310060024E+00 8.280706406E-02 7.466402054E-01
 1.162579956E+03 2.463860016E+02 -3.922868347E+01 1.311515450E+00 8.378960937E-02 7.441797256E-01
 1.162579956E+03 2.463860016E+02 -3.902868652E+01 1.312960863E+00 8.476430178E-02 7.417966723E-01
 1.162579956E+03 2.463860016E+02 -3.882868576E+01 1.314221740E+00 8.562008291E-02 7.394328713E-01
 1.162579956E+03 2.463860016E+02 -3.862868500E+01 1.315616727E+00 8.655195683E-02 7.371736169E-01
 1.162579956E+03 2.463860016E+02 -3.842868423E+01 1.316950917E+00 8.743996173E-02 7.349516749E-01
 1.162579956E+03 2.463860016E+02 -3.822868347E+01 1.318263769E+00 8.831529319E-02 7.327286601E-01
 1.162579956E+03 2.463860016E+02 -3.802868652E+01 1.319355249E+00 8.908864111E-02 7.301254869E-01
 1.162579956E+03 2.463860016E+02 -3.782868576E+01 1.320385337E+00 8.982647955E-02 7.275222540E-01
 1.162579956E+03 2.463860016E+02 -3.762868500E+01 1.321621776E+00 9.065551311E-02 7.252324224E-01
 1.162579956E+03 2.463860016E+02 -3.742868423E+01 1.322829366E+00 9.146839380E-02 7.229419947E-01
 1.162579956E+03 2.463860016E+02 -3.722868347E+01 1.323906898E+00 9.221867472E-02 7.205400467E-01
 1.162579956E+03 2.463860016E+02 -3.702868652E+01 1.324979663E+00 9.296904504E-02 7.180716395E-01
 1.162579956E+03 2.463860016E+02 -3.682868576E+01 1.326000333E+00 9.369401634E-02 7.156503201E-01
 1.162579956E+03 2.463860016E+02 -3.662868500E+01 1.326966047E+00 9.438160062E-02 7.132453918E-01
 1.162579956E+03 2.463860016E+02 -3.642868423E+01 1.327910781E+00 9.505419433E-02 7.108284235E-01
 1.162579956E+03 2.463860016E+02 -3.622868347E+01 1.328872085E+00 9.574265778E-02 7.084499002E-01
 1.162579956E+03 2.463860016E+02 -3.602868652E+01 1.329823971E+00 9.642286599E-02 7.061137557E-01
 1.162579956E+03 2.463860016E+02 -3.582868576E+01 1.330637455E+00 9.701549262E-02 7.037389874E-01
 1.162579956E+03 2.463860016E+02 -3.562868500E+01 1.331472278E+00 9.762309492E-02 7.013753653E-01
 1.162579956E+03 2.463860016E+02 -3.542868423E+01 1.332380652E+00 9.827096015E-02 6.991022229E-01
 1.162579956E+03 2.463860016E+02 -3.522868347E+01 1.333228469E+00 9.888005257E-02 6.968877316E-01
 1.162579956E+03 2.463860016E+02 -3.502868652E+01 1.333944321E+00 9.940560162E-02 6.946395636E-01
 1.162579956E+03 2.463860016E+02 -3.482868576E+01 1.334651351E+00 9.992475808E-02 6.923869252E-01
 1.162579956E+03 2.463860016E+02 -3.462868500E+01 1.335394144E+00 1.004696861E-01 6.901518703E-01
 1.162579956E+03 2.463860016E+02 -3.442868423E+01 1.336086273E+00 1.009913236E-01 6.878390312E-01
 1.162579956E+03 2.463860016E+02 -3.422868347E+01 1.336757421E+00 1.014983580E-01 6.855627298E-01
 1.162579956E+03 2.463860016E+02 -3.402868652E+01 1.337397695E+00 1.019826457E-01 6.832723618E-01
 1.162579956E+03 2.463860016E+02 -3.382868576E+01 1.338016272E+00 1.024509519E-01 6.809720397E-01
 1.162579956E+03 2.463860016E+02 -3.362868500E+01 1.338634849E+00 1.029192656E-01 6.786717176E-01
 1.162579956E+03 2.463860016E+02 -3.342868423E+01 1.339214563E+00 1.033719704E-01 6.763972044E-01
 1.162579956E+03 2.463860016E+02 -3.322868347E+01 1.339746714E+00 1.038049012E-01 6.741019487E-01
 1.162579956E+03 2.463860016E+02 -3.302868652E+01 1.340245962E+00 1.042202637E-01 6.718560457E-01
 1.162579956E+03 2.463860016E+02 -3.282868576E+01 1.340727687E+00 1.046226844E-01 6.696024537E-01
 1.162579956E+03 2.463860016E+02 -3.262868500E+01 1.341183424E+00 1.050045043E-01 6.673341393E-01
 1.162579956E+03 2.463860016E+02 -3.242868423E+01 1.341612339E+00 1.053705588E-01 6.650661826E-01
 1.162579956E+03 2.463860016E+02 -3.222868347E+01 1.342021346E+00 1.057275459E-01 6.628062129E-01
 1.162579956E+03 2.463860016E+02 -3.202868652E+01 1.342463493E+00 1.061093807E-01 6.605610251E-01
 1.162579956E+03 2.463860016E+02 -3.182868576E+01 1.342903614E+00 1.064866334E-01 6.583634019E-01
 1.162579956E+03 2.463860016E+02 -3.162868500E+01 1.343340635E+00 1.068568081E-01 6.562390327E-01
 1.162579956E+03 2.463860016E+02 -3.142868423E+01 1.343767405E+00 1.072187275E-01 6.541261673E-01
 1.162579956E+03 2.463860016E+02 -3.122868538E+01 1.344050407E+00 1.074837968E-01 6.520204544E-01
 1.162579956E+03 2.463860016E+02 -3.102868462E+01 1.344333410E+00 1.077488661E-01 6.499147415E-01
 1.162579956E+03 2.463860016E+02 -3.082868576E+01 1.344616413E+00 1.080139354E-01 6.478090882E-01
 1.162579956E+03 2.463860016E+02 -3.062868500E+01 1.344913244E+00 1.082893908E-01 6.457093358E-01
 1.162579956E+03 2.463860016E+02 -3.042868423E+01 1.345241666E+00 1.085887775E-01 6.436234117E-01
 1.162579956E+03 2.463860016E+02 -3.022868538E+01 1.345572829E+00 1.088898107E-01 6.415375471E-01
 1.162579956E+03 2.463860016E+02 -3.002868462E+01 1.345815063E+00 1.091369092E-01 6.394793391E-01
 1.162579956E+03 2.463860016E+02 -2.982868576E+01 1.346039176E+00 1.093741357E-01 6.374033093E-01
 1.162579956E+03 2.463860016E+02 -2.962868500E+01 1.346256614E+00 1.096060276E-01 6.353248358E-01
 1.162579956E+03 2.463860016E+02 -2.942868423E+01 1.346438289E+00 1.098096594E-01 6.332334280E-01
 1.162579956E+03 2.463860016E+02 -2.922868538E+01 1.346620083E+00 1.100132912E-01 6.311420202E-01
 1.162579956E+03 2.463860016E+02 -2.902868462E+01 1.346801758E+00 1.102169305E-01 6.290506124E-01
 1.162579956E+03 2.463860016E+02 -2.882868576E+01 1.346983552E+00 1.104205623E-01 6.269592047E-01
 1.162579956E+03 2.463860016E+02 -2.862868500E+01 1.347116828E+00 1.106049567E-01 6.248703003E-01
 1.162579956E+03 2.463860016E+02 -2.842868423E+01 1.347221851E+00 1.107781678E-01 6.227849126E-01
 1.162579956E+03 2.463860016E+02 -2.822868538E+01 1.347326875E+00 1.109513715E-01 6.206995249E-01
 1.162579956E+03 2.463860016E+02 -2.802868462E+01 1.347433925E+00 1.111214906E-01 6.187286973E-01
 1.162579956E+03 2.463860016E+02 -2.782868576E+01 1.347541213E+00 1.112912819E-01 6.167697310E-01
 1.162579956E+03 2.463860016E+02 -2.762868500E+01 1.347648382E+00 1.114610806E-01 6.148107052E-01
 1.162579956E+03 2.463860016E+02 -2.742868423E+01 1.347731829E+00 1.116109267E-01 6.128444672E-01
 1.162579956E+03 2.463860016E+02 -2.722868538E+01 1.347800374E+00 1.117481887E-01 6.108736396E-01
 1.162579956E+03 2.463860016E+02 -2.702868462E+01 1.347788930E+00 1.118375584E-01 6.089243293E-01
 1.162579956E+03 2.463860016E+02 -2.682868576E+01 1.347751498E+00 1.119114012E-01 6.069820523E-01
 1.162579956E+03 2.463860016E+02 -2.662868500E+01 1.347714186E+00 1.119852439E-01 6.050397158E-01
 1.162579956E+03 2.463860016E+02 -2.642868423E+01 1.347692728E+00 1.120688766E-01 6.030934453E-01
 1.162579956E+03 2.463860016E+02 -2.622868538E+01 1.347735763E+00 1.121963114E-01 6.011695862E-01
 1.162579956E+03 2.463860016E+02 -2.602868462E+01 1.347781301E+00 1.123224348E-01 5.992580056E-01
 1.162579956E+03 2.463860016E+02 -2.582868576E+01 1.347826719E+00 1.124485582E-01 5.973464847E-01
 1.162579956E+03 2.463860016E+02 -2.562868500E+01 1.347881436E+00 1.125764176E-01 5.955446362E-01
 1.162579956E+03 2.463860016E+02 -2.542868423E+01 1.347912788E+00 1.126894802E-01 5.937830210E-01
 1.162579956E+03 2.463860016E+02 -2.522868538E+01 1.347872257E+00 1.127601042E-01 5.920423269E-01
 1.162579956E+03 2.463860016E+02 -2.502868462E+01 1.347831726E+00 1.128307208E-01 5.903016329E-01
 1.162579956E+03 2.463860016E+02 -2.482868576E+01 1.347738147E+00 1.128632575E-01 5.885096192E-01
 1.162579956E+03 2.463860016E+02 -2.462868500E+01 1.347625375E+00 1.128845811E-01 5.866901278E-01
 1.162579956E+03 2.463860016E+02 -2.442868423E+01 1.347512603E+00 1.129059047E-01 5.848705769E-01
 1.162579956E+03 2.463860016E+02 -2.422868538E+01 1.347399831E+00 1.129272282E-01 5.830510855E-01
 1.162579956E+03 2.463860016E+02 -2.402868462E+01 1.347287059E+00 1.129485518E-01 5.812315345E-01
 1.162579956E+03 2.463860016E+02 -2.382868576E+01 1.347174287E+00 1.129698753E-01 5.794120431E-01
 1.162579956E+03 2.463860016E+02 -2.362868500E+01 1.347061515E+00 1.129911914E-01 5.775925517E-01
 1.162579956E+03 2.463860016E+02 -2.342868423E+01 1.346919417E+00 1.130055487E-01 5.758087039E-01
 1.162579956E+03 2.463860016E+02 -2.322868538E+01 1.346735120E+00 1.130007580E-01 5.740177631E-01
 1.162579956E+03 2.463860016E+02 -2.302868462E+01 1.346550345E+00 1.129961461E-01 5.722248554E-01
 1.162579956E+03 2.463860016E+02 -2.282868576E+01 1.346378922E+00 1.129986271E-01 5.704730749E-01
 1.162579956E+03 2.463860016E+02 -2.262868500E+01 1.346239567E+00 1.130179912E-01 5.688191056E-01
 1.162579956E+03 2.463860016E+02 -2.242868423E+01 1.346100211E+00 1.130373552E-01 5.671651959E-01
 1.162579956E+03 2.463860016E+02 -2.222868538E+01 1.345960736E+00 1.130567193E-01 5.655112267E-01
 1.162579956E+03 2.463860016E+02 -2.202868462E+01 1.345821381E+00 1.130760908E-01 5.638573170E-01
 1.162579956E+03 2.463860016E+02 -2.182868576E+01 1.345656157E+00 1.130686402E-01 5.621977448E-01
 1.162579956E+03 2.463860016E+02 -2.162868500E+01 1.345487118E+00 1.130573899E-01 5.605373979E-01
 1.162579956E+03 2.463860016E+02 -2.142868423E+01 1.345297456E+00 1.130336970E-01 5.588876605E-01
 1.162579956E+03 2.463860016E+02 -2.122868538E+01 1.345037222E+00 1.129675135E-01 5.572741628E-01
 1.162579956E+03 2.463860016E+02 -2.102868462E+01 1.344776869E+00 1.129013225E-01 5.556606054E-01
 1.162579956E+03 2.463860016E+02 -2.082868576E+01 1.344516635E+00 1.128351316E-01 5.540471077E-01
 1.162579956E+03 2.463860016E+02 -2.062868500E+01 1.344256282E+00 1.127689481E-01 5.524335504E-01
 1.162579956E+03 2.463860016E+02 -2.042868423E+01 1.343999147E+00 1.127019599E-01 5.508300066E-01
 1.162579956E+03 2.463860016E+02 -2.022868538E+01 1.343759060E+00 1.126481444E-01 5.492416620E-01
 1.162579956E+03 2.463860016E+02 -2.002868462E+01 1.343539000E+00 1.126130298E-01 5.476539731E-01
 1.162579956E+03 2.463860016E+02 -1.982868576E+01 1.343338251E+00 1.125894263E-01 5.460569263E-01
 1.162579956E+03 2.463860016E+02 -1.962868500E+01 1.343137622E+00 1.125658154E-01 5.444598198E-01
 1.162579956E+03 2.463860016E+02 -1.942868423E+01 1.342944264E+00 1.125470102E-01 5.428839922E-01
 1.162579956E+03 2.463860016E+02 -1.922868538E+01 1.342779517E+00 1.125475019E-01 5.414469838E-01
 1.162579956E+03 2.463860016E+02 -1.902868462E+01 1.342556715E+00 1.125140116E-01 5.400422812E-01
 1.162579956E+03 2.463860016E+02 -1.882868576E+01 1.342305064E+00 1.124666035E-01 5.385790467E-01
 1.162579956E+03 2.463860016E+02 -1.862868500E+01 1.342050910E+00 1.124179810E-01 5.371107459E-01
 1.162579956E+03 2.463860016E+02 -1.842868423E+01 1.341795325E+00 1.123675555E-01 5.356420875E-01
 1.162579956E+03 2.463860016E+02 -1.822868538E+01 1.341517091E+00 1.122891679E-01 5.341694951E-01
 1.162579956E+03 2.463860016E+02 -1.802868462E+01 1.341238856E+00 1.122107729E-01 5.326968431E-01
 1.162579956E+03 2.463860016E+02 -1.782868576E+01 1.340960622E+00 1.121323854E-01 5.312241912E-01
 1.162579956E+03 2.463860016E+02 -1.762868500E+01 1.340682387E+00 1.120539978E-01 5.297515392E-01
 1.162579956E+03 2.463860016E+02 -1.742868423E+01 1.340404153E+00 1.119756028E-01 5.282789469E-01
 1.162579956E+03 2.463860016E+02 -1.722868538E+01 1.340119720E+00 1.118986160E-01 5.267890692E-01
 1.162579956E+03 2.463860016E+02 -1.702868462E+01 1.339834452E+00 1.118218228E-01 5.252968073E-01
 1.162579956E+03 2.463860016E+02 -1.682868576E+01 1.339549184E+00 1.117450297E-01 5.238046050E-01
 1.162579956E+03 2.463860016E+02 -1.662868500E+01 1.339195251E+00 1.116270646E-01 5.223600268E-01
 1.162579956E+03 2.463860016E+02 -1.642868423E+01 1.338834763E+00 1.115062088E-01 5.209212303E-01
 1.162579956E+03 2.463860016E+02 -1.622868538E+01 1.338495851E+00 1.114131957E-01 5.194860101E-01
 1.162579956E+03 2.463860016E+02 -1.602868462E+01 1.338156939E+00 1.113201752E-01 5.180508494E-01
 1.162579956E+03 2.463860016E+02 -1.582868481E+01 1.337818027E+00 1.112271622E-01 5.166156292E-01
 1.162579956E+03 2.463860016E+02 -1.562868500E+01 1.337479115E+00 1.111341491E-01 5.151804686E-01
 1.162579956E+03 2.463860016E+02 -1.542868519E+01 1.337147236E+00 1.110471785E-01 5.137635469E-01
 1.162579956E+03 2.463860016E+02 -1.522868443E+01 1.336852312E+00 1.109917909E-01 5.124421120E-01
 1.162579956E+03 2.463860016E+02 -1.502868462E+01 1.336557269E+00 1.109363958E-01 5.111207366E-01
 1.162579956E+03 2.463860016E+02 -1.482868481E+01 1.336262345E+00 1.108810082E-01 5.097993016E-01
 1.162579956E+03 2.463860016E+02 -1.462868500E+01 1.335967302E+00 1.108256131E-01 5.084779263E-01
 1.162579956E+03 2.463860016E+02 -1.442868519E+01 1.335672259E+00 1.107702255E-01 5.071565509E-01
 1.162579956E+03 2.463860016E+02 -1.422868443E+01 1.335367799E+00 1.107040942E-01 5.058366656E-01
 1.162579956E+03 2.463860016E+02 -1.402868462E+01 1.334972501E+00 1.105682105E-01 5.045835972E-01
 1.162579956E+03 2.463860016E+02 -1.382868481E+01 1.334579229E+00 1.104319394E-01 5.033355951E-01
 1.162579956E+03 2.463860016E+02 -1.362868500E+01 1.334186077E+00 1.102956757E-01 5.020875931E-01
 1.162579956E+03 2.463860016E+02 -1.342868519E+01 1.333792806E+00 1.101594120E-01 5.008395910E-01
 1.162579956E+03 2.463860016E+02 -1.322868443E+01 1.333399534E+00 1.100231484E-01 4.995915890E-01
 1.162579956E+03 2.463860016E+02 -1.302868462E+01 1.333006263E+00 1.098868847E-01 4.983435869E-01
 1.162579956E+03 2.463860016E+02 -1.282868481E+01 1.332613111E+00 1.097506210E-01 4.970955849E-01
 1.162579956E+03 2.463860016E+02 -1.262868500E+01 1.332219839E+00 1.096143574E-01 4.958475828E-01
 1.162579956E+03 2.463860016E+02 -1.242868519E+01 1.331815124E+00 1.094721407E-01 4.945835769E-01
 1.162579956E+03 2.463860016E+02 -1.222868443E+01 1.331390023E+00 1.093194783E-01 4.932914674E-01
 1.162579956E+03 2.463860016E+02 -1.202868462E+01 1.330965042E+00 1.091668159E-01 4.919993579E-01
 1.162579956E+03 2.463860016E+02 -1.182868481E+01 1.330549955E+00 1.090292931E-01 4.907081425E-01
 1.162579956E+03 2.463860016E+02 -1.162868500E+01 1.330145001E+00 1.089070439E-01 4.894178808E-01
 1.162579956E+03 2.463860016E+02 -1.142868519E+01 1.329733968E+00 1.087808907E-01 4.881344736E-01
 1.162579956E+03 2.463860016E+02 -1.122868443E+01 1.329261661E+00 1.086157858E-01 4.869195521E-01
 1.162579956E+03 2.463860016E+02 -1.102868462E+01 1.328789353E+00 1.084506884E-01 4.857046306E-01
 1.162579956E+03 2.463860016E+02 -1.082868481E+01 1.328316927E+00 1.082855836E-01 4.844897389E-01
 1.162579956E+03 2.463860016E+02 -1.062868500E+01 1.327944279E+00 1.081688851E-01 4.833483696E-01
 1.162579956E+03 2.463860016E+02 -1.042868519E+01 1.327620029E+00 1.080775335E-01 4.822389185E-01
 1.162579956E+03 2.463860016E+02 -1.022868443E+01 1.327295780E+00 1.079861820E-01 4.811294377E-01
 1.162579956E+03 2.463860016E+02 -1.002868462E+01 1.326971531E+00 1.078948304E-01 4.800199866E-01
 1.162579956E+03 2.463860016E+02 -9.828684807E+00 1.326647282E+00 1.078034788E-01 4.789105356E-01
 1.162579956E+03 2.463860016E+02 -9.628684998E+00 1.326323032E+00 1.077121273E-01 4.778010547E-01
 1.162579956E+03 2.463860016E+02 -9.428685188E+00 1.325998783E+00 1.076207757E-01 4.766916037E-01
 1.162579956E+03 2.463860016E+02 -9.228684425E+00 1.325674534E+00 1.075294241E-01 4.755821228E-01
 1.162579956E+03 2.463860016E+02 -9.028684616E+00 1.325342298E+00 1.074245423E-01 4.744744301E-01
 1.162579956E+03 2.463860016E+02 -8.828684807E+00 1.325002074E+00 1.073060706E-01 4.733685255E-01
 1.162579956E+03 2.463860016E+02 -8.628684998E+00 1.324661970E+00 1.071876064E-01 4.722625911E-01
 1.162579956E+03 2.463860016E+02 -8.428685188E+00 1.324303031E+00 1.070560664E-01 4.711875021E-01
 1.162579956E+03 2.463860016E+02 -8.228684425E+00 1.323917747E+00 1.069061682E-01 4.701557159E-01
 1.162579956E+03 2.463860016E+02 -8.028684616E+00 1.323532581E+00 1.067562774E-01 4.691239595E-01
 1.162579956E+03 2.463860016E+02 -7.828684807E+00 1.323154449E+00 1.066058129E-01 4.681060612E-01
 1.162579956E+03 2.463860016E+02 -7.628684998E+00 1.322777867E+00 1.064552292E-01 4.670911431E-01
 1.162579956E+03 2.463860016E+02 -7.428684711E+00 1.322401404E+00 1.063046455E-01 4.660762250E-01
 1.162579956E+03 2.463860016E+02 -7.228684902E+00 1.322024822E+00 1.061540619E-01 4.650613070E-01
 1.162579956E+03 2.463860016E+02 -7.028684616E+00 1.321648240E+00 1.060034707E-01 4.640463889E-01
 1.162579956E+03 2.463860016E+02 -6.828684807E+00 1.321271658E+00 1.058528870E-01 4.630314708E-01
 1.162579956E+03 2.463860016E+02 -6.628684998E+00 1.320895076E+00 1.057023033E-01 4.620165527E-01
 1.162579956E+03 2.463860016E+02 -6.428684711E+00 1.320525765E+00 1.055645421E-01 4.609999657E-01
 1.162579956E+03 2.463860016E+02 -6.228684902E+00 1.320149541E+00 1.054354012E-01 4.599605799E-01
 1.162579956E+03 2.463860016E+02 -6.028684616E+00 1.319751740E+00 1.052946299E-01 4.588953853E-01
 1.162579956E+03 2.463860016E+02 -5.828684807E+00 1.319353938E+00 1.051538512E-01 4.578301907E-01
 1.162579956E+03 2.463860016E+02 -5.628684998E+00 1.318956137E+00 1.050130799E-01 4.567649961E-01
 1.162579956E+03 2.463860016E+02 -5.428684711E+00 1.318543196E+00 1.048636660E-01 4.557210207E-01
 1.162579956E+03 2.463860016E+02 -5.228684902E+00 1.318086743E+00 1.046894491E-01 4.547378719E-01
 1.162579956E+03 2.463860016E+02 -5.028684616E+00 1.317630172E+00 1.045152321E-01 4.537546933E-01
 1.162579956E+03 2.463860016E+02 -4.828684807E+00 1.317173719E+00 1.043410152E-01 4.527715445E-01
 1.162579956E+03 2.463860016E+02 -4.628684998E+00 1.316749930E+00 1.041871905E-01 4.518004060E-01
 1.162579956E+03 2.463860016E+02 -4.428684711E+00 1.316409588E+00 1.040852368E-01 4.508597851E-01
 1.162579956E+03 2.463860016E+02 -4.228684902E+00 1.316069245E+00 1.039832830E-01 4.499191642E-01