#++++++++++++++++++++++++++++++++++++++++++++++++++++++++++++++++++++++++++++++++++++++++++++++++++++++++++++++++++++++++++++++++++++++
#
#   HiLiftPW-2 Velocity DATA SUBMITTAL FORM Case 2b (Version 1), March 2013
#
#   CASE 2 is a required Reynolds number study at 8 different angles-of-attack each.
#   Config 4 (including Slat Tracks and Flap Track Fairings) should be used.
#   A comparable *Medium* mesh density from the Grid Convergence Study should be used.
#   The required parts of this case (Case 2a and 2b) should be run FULLY TURBULENT (no forced transition).
#   An optional part of this case (Case 2c) can be run with transition specified or predicted.
#
#   This data file only asks for a subset of information to be reported: AoA=7, 18.5, and 21 only.
#
#       NOMENCLATURE:
#              ALPHA:	Angle of attack, deg.
#                 FT:   Fully Turbulent
#                 TR:   Transition specified or computed
#              X,Y,Z:   Cartesian coordinates, in mm
#             u/Uinf:   Velocity component in X-direction relative to freestream
#             v/Uinf:   Velocity component in Y-direction relative to freestream
#             w/Uinf:   Velocity component in Z-direction relative to freestream
#
#                XXX:	Participant ID (To be assigned by HiLiftPW-1 workshop committee)
#
#    FLOW CONDITIONS CASE 2b:
#             Mach Number: 0.175
#             Reynolds Number: 15.1 million (based on MAC)
#             Freestream Temp: 114.0 K (205.2 R)
#             Freestream Static Pressure: 295000 Pa (42.7861 psi)
#
#              NOTES: 1. All numerical data fields can be free-formatted
#                     2. Please use at least 3 decimal places in the numerical values for velocity
#                     3. If optional data is NOT provided, please fill data fields with a numerical value of "-999" 
#                     4. Results are requested for both medium and fine grids
#
#++++++++++++++++++++++++++++++++++++++++++++++++++++++++++++++++++++++++++++++++++++++++++++++++++++++++++++++++++++++++++++++++++++++

TITLE = "009.1"

VARIABLES = "X" "Y" "Z" "u/Uinf" "v/Uinf" "w/Uinf"
#-----------------------------------------------------------------------------------
# ALPHA 7, medium grid:
#-----------------------------------------------------------------------------------

ZONE T="009.1 case2b a7 medium, p1, wB, line1"
# extract along Z at X=1162.58, Y=246.386, from wing upper surface to at least 59mm high above surface
 1162.58  246.386  -60.0287 0.493179 0.12578 0.7791979999999999 
 1162.58  246.386  -59.9197 0.524763 0.11773 0.837242 
 1162.58  246.386  -59.7862 0.56336 0.107353 0.907143 
 1162.58  246.386  -59.6252 0.6032729999999999 0.0969844 0.975276 
 1162.58  246.386  -59.4273 0.636729 0.0884568 1.02464 
 1162.58  246.386  -59.1862 0.659641 0.0817358 1.04799 
 1162.58  246.386  -59.0534 0.666843 0.0787944 1.04993 
 1162.58  246.386  -58.901 0.675307 0.0752507 1.05271 
 1162.58  246.386  -58.5618 0.687777 0.0670719 1.04642 
 1162.58  246.386  -58.1479 0.6987449999999999 0.0576463 1.03093 
 1162.58  246.386  -57.6696 0.708251 0.0460726 1.01032 
 1162.58  246.386  -57.1364 0.7179 0.0323257 0.986464 
 1162.58  246.386  -57.0895 0.718672 0.0311054 0.984355 
 1162.58  246.386  -56.6646 0.725728 0.0183947 0.9666439999999999 
 1162.58  246.386  -56.4159 0.729228 0.0123479 0.955169 
 1162.58  246.386  -56.3725 0.729948 0.0110248 0.953443 
 1162.58  246.386  -56.261 0.732387 0.00669569 0.94985 
 1162.58  246.386  -56.087 0.734446 0.00332419 0.94369 
 1162.58  246.386  -56.0407 0.735368 0.00125036 0.9399650000000001 
 1162.58  246.386  -55.8696 0.73858 -0.00463754 0.934029 
 1162.58  246.386  -55.7877 0.739824 -0.00659911 0.931011 
 1162.58  246.386  -55.6147 0.741569 -0.0111495 0.922841 
 1162.58  246.386  -55.4607 0.744783 -0.0161849 0.918481 
 1162.58  246.386  -55.1356 0.749656 -0.0255902 0.906224 
 1162.58  246.386  -54.85 0.7537970000000001 -0.0337513 0.895543 
 1162.58  246.386  -54.8095 0.754576 -0.034925 0.894279 
 1162.58  246.386  -54.7362 0.756034 -0.0373857 0.891459 
 1162.58  246.386  -54.6683 0.756338 -0.0392014 0.888285 
 1162.58  246.386  -54.4804 0.760602 -0.0444382 0.883749 
 1162.58  246.386  -54.3624 0.761996 -0.0482205 0.878547 
 1162.58  246.386  -54.1407 0.766682 -0.0542323 0.872968 
 1162.58  246.386  -54.0418 0.767338 -0.0574787 0.868027 
 1162.58  246.386  -53.9859 0.76835 -0.059102 0.866244 
 1162.58  246.386  -53.7836 0.772717 -0.06438720000000001 0.861608 
 1162.58  246.386  -53.6422 0.774873 -0.06846579999999999 0.857046 
 1162.58  246.386  -53.603 0.775461 -0.07008440000000001 0.854802 
 1162.58  246.386  -53.5593 0.775792 -0.0714077 0.8529369999999999 
 1162.58  246.386  -53.5206 0.776583 -0.0724958 0.85185 
 1162.58  246.386  -53.3996 0.7793870000000001 -0.0754257 0.850078 
 1162.58  246.386  -53.213 0.782663 -0.0810526 0.843377 
 1162.58  246.386  -52.9748 0.787155 -0.0874538 0.8376 
 1162.58  246.386  -52.8129 0.790207 -0.0922084 0.8314820000000001 
 1162.58  246.386  -52.7711 0.790758 -0.0932409 0.831778 
 1162.58  246.386  -52.4886 0.796448 -0.100857 0.824079 
 1162.58  246.386  -52.3992 0.798484 -0.103158 0.821966 
 1162.58  246.386  -52.2686 0.800755 -0.106539 0.818392 
 1162.58  246.386  -52.1585 0.802449 -0.109623 0.814833 
 1162.58  246.386  -52.066 0.804962 -0.111489 0.813146 
 1162.58  246.386  -51.9679 0.806494 -0.114362 0.810424 
 1162.58  246.386  -51.9147 0.807212 -0.115756 0.808406 
 1162.58  246.386  -51.7075 0.811049 -0.120946 0.8028419999999999 
 1162.58  246.386  -51.3587 0.817774 -0.129151 0.7939619999999999 
 1162.58  246.386  -51.2215 0.820504 -0.132186 0.79064 
 1162.58  246.386  -51.0767 0.823262 -0.135343 0.786983 
 1162.58  246.386  -50.8402 0.827864 -0.140142 0.781208 
 1162.58  246.386  -50.7616 0.82957 -0.141513 0.779743 
 1162.58  246.386  -50.6361 0.831837 -0.143997 0.776419 
 1162.58  246.386  -50.456 0.835317 -0.147141 0.772303 
 1162.58  246.386  -50.393 0.836528 -0.148137 0.770877 
 1162.58  246.386  -50.2928 0.838384 -0.149672 0.768427 
 1162.58  246.386  -50.1432 0.841072 -0.151687 0.764733 
 1162.58  246.386  -50.0047 0.843423 -0.153291 0.761266 
 1162.58  246.386  -49.8752 0.845458 -0.154516 0.757927 
 1162.58  246.386  -49.7535 0.847179 -0.155353 0.754628 
 1162.58  246.386  -49.6384 0.848602 -0.155799 0.751311 
 1162.58  246.386  -49.5292 0.849731 -0.155842 0.747919 
 1162.58  246.386  -49.4251 0.850476 -0.155526 0.744909 
 1162.58  246.386  -49.3252 0.851217 -0.154618 0.7405080000000001 
 1162.58  246.386  -49.2298 0.851662 -0.153321 0.7365 
 1162.58  246.386  -49.1386 0.852001 -0.151558 0.732365 
 1162.58  246.386  -49.0515 0.852316 -0.149314 0.728122 
 1162.58  246.386  -48.968 0.8527090000000001 -0.146576 0.723811 
 1162.58  246.386  -48.8883 0.853295 -0.143339 0.719484 
 1162.58  246.386  -48.8118 0.854191 -0.139609 0.715232 
 1162.58  246.386  -48.7386 0.855531 -0.13541 0.7111229999999999 
 1162.58  246.386  -48.6685 0.857429 -0.130776 0.707249 
 1162.58  246.386  -48.6012 0.860013 -0.125761 0.703694 
 1162.58  246.386  -48.5365 0.863368 -0.120418 0.700595 
 1162.58  246.386  -48.4742 0.867575 -0.114817 0.698038 
 1162.58  246.386  -48.4144 0.872703 -0.109031 0.696106 
 1162.58  246.386  -48.3565 0.876131 -0.10568 0.6953859999999999 
 1162.58  246.386  -48.3004 0.885711 -0.0970702 0.694144 
 1162.58  246.386  -48.2461 0.893663 -0.0910434 0.694275 
 1162.58  246.386  -48.1932 0.9026420000000001 -0.08509029999999999 0.695244 
 1162.58  246.386  -48.1417 0.912625 -0.0792571 0.697109 
 1162.58  246.386  -48.0913 0.923596 -0.0736097 0.699862 
 1162.58  246.386  -48.0419 0.9355250000000001 -0.0682138 0.703533 
 1162.58  246.386  -47.9934 0.9483549999999999 -0.0631375 0.708164 
 1162.58  246.386  -47.9453 0.961927 -0.0584335 0.71383 
 1162.58  246.386  -47.8975 0.975452 -0.0540078 0.720816 
 1162.58  246.386  -47.8499 0.98319 -0.0464193 0.736182 
 1162.58  246.386  -47.8024 0.9944229999999999 -0.0446329 0.741914 
 1162.58  246.386  -47.7513 1.00636 -0.0427316 0.747995 
 1162.58  246.386  -47.7002 1.0172 -0.0351644 0.751776 
 1162.58  246.386  -47.6486 1.03078 -0.0291205 0.756481 
 1162.58  246.386  -47.5967 1.04614 -0.0240857 0.763053 
 1162.58  246.386  -47.5441 1.06281 -0.0200482 0.771316 
 1162.58  246.386  -47.491 1.08006 -0.0170269 0.780711 
 1162.58  246.386  -47.437 1.09691 -0.0149744 0.790413 
 1162.58  246.386  -47.3819 1.11234 -0.0137465 0.799497 
 1162.58  246.386  -47.3258 1.12562 -0.0131346 0.807237 
 1162.58  246.386  -47.2683 1.13654 -0.012957 0.813349 
 1162.58  246.386  -47.2093 1.14527 -0.0130707 0.81789 
 1162.58  246.386  -47.1487 1.15223 -0.0133948 0.821157 
 1162.58  246.386  -47.0878 1.15772 -0.0138477 0.82337 
 1162.58  246.386  -47.0225 1.16232 -0.0145599 0.824599 
 1162.58  246.386  -46.9566 1.16605 -0.0153577 0.825309 
 1162.58  246.386  -46.8885 1.16928 -0.0163492 0.825671 
 1162.58  246.386  -46.8175 1.17206 -0.017351 0.825585 
 1162.58  246.386  -46.7438 1.17455 -0.0184343 0.825345 
 1162.58  246.386  -46.6669 1.17681 -0.0195461 0.824861 
 1162.58  246.386  -46.5866 1.17892 -0.0206811 0.824236 
 1162.58  246.386  -46.5028 1.18091 -0.0218606 0.823451 
 1162.58  246.386  -46.415 1.18283 -0.0230479 0.82255 
 1162.58  246.386  -46.3229 1.18471 -0.0242688 0.821539 
 1162.58  246.386  -46.2257 1.18661 -0.0255217 0.8204399999999999 
 1162.58  246.386  -46.1233 1.18855 -0.0267968 0.819275 
 1162.58  246.386  -46.0149 1.19056 -0.028105 0.818036 
 1162.58  246.386  -45.8992 1.19269 -0.0294483 0.816747 
 1162.58  246.386  -45.7758 1.19492 -0.030844 0.815385 
 1162.58  246.386  -45.6423 1.19735 -0.0322989 0.813957 
 1162.58  246.386  -45.5089 1.19973 -0.0337267 0.812558 
 1162.58  246.386  -45.3376 1.20267 -0.0354889 0.810469 
 1162.58  246.386  -45.1587 1.20569 -0.0372961 0.808339 
 1162.58  246.386  -44.9522 1.20906 -0.0393501 0.805918 
 1162.58  246.386  -44.7113 1.21289 -0.0417081 0.803172 
 1162.58  246.386  -44.4081 1.21757 -0.0446149 0.799779 
 1162.58  246.386  -44.0324 1.22314 -0.0480997 0.795728 
 1162.58  246.386  -43.7441 1.22725 -0.0506465 0.792732 
 1162.58  246.386  -43.5528 1.22996 -0.052307 0.79029 
 1162.58  246.386  -42.9342 1.23837 -0.0574568 0.7826650000000001 
 1162.58  246.386  -42.1371 1.24818 -0.063526 0.773055 
 1162.58  246.386  -41.7247 1.25277 -0.06638380000000001 0.768239 
 1162.58  246.386  -41.1244 1.25899 -0.0703264 0.760375 
 1162.58  246.386  -39.8551 1.27077 -0.07771690000000001 0.744661 
 1162.58  246.386  -39.3889 1.27471 -0.0802417 0.739361 
 1162.58  246.386  -38.2896 1.28322 -0.0857518 0.7255819999999999 
 1162.58  246.386  -36.654 1.29356 -0.09254999999999999 0.706477 
 1162.58  246.386  -36.3765 1.29511 -0.0935903 0.7029300000000001 
 1162.58  246.386  -34.9458 1.30187 -0.09809379999999999 0.685995 
 1162.58  246.386  -34.0694 1.30538 -0.100487 0.675592 
 1162.58  246.386  -33.3993 1.30769 -0.102059 0.668323 
 1162.58  246.386  -31.308 1.31325 -0.106017 0.644084 
 1162.58  246.386  -29.4633 1.31675 -0.108613 0.625077 
 1162.58  246.386  -28.0188 1.31836 -0.109995 0.609466 
 1162.58  246.386  -26.1108 1.31981 -0.111375 0.591318 
 1162.58  246.386  -24.6214 1.32024 -0.111994 0.577515 
 1162.58  246.386  -24.1192 1.32014 -0.112066 0.572632 
 1162.58  246.386  -24.0646 1.32013 -0.112076 0.572157 
 1162.58  246.386  -22.0761 1.31938 -0.112155 0.55554 
 1162.58  246.386  -20.4845 1.31825 -0.111818 0.541844 
 1162.58  246.386  -20.3099 1.31815 -0.111802 0.540579 
 1162.58  246.386  -19.5316 1.31733 -0.111471 0.534077 
 1162.58  246.386  -18.5107 1.31651 -0.111224 0.526821 
 1162.58  246.386  -14.8672 1.31167 -0.109246 0.5009209999999999 
 1162.58  246.386  -14.1483 1.31047 -0.108671 0.495754 
 1162.58  246.386  -13.451 1.30963 -0.108327 0.491595 
 1162.58  246.386  -11.927 1.30749 -0.107415 0.482482 
 1162.58  246.386  -10.6075 1.3055 -0.106526 0.4748 
 1162.58  246.386  -7.82497 1.3003 -0.104015 0.458564 
 1162.58  246.386  -7.46382 1.3 -0.104048 0.457217 
 1162.58  246.386  -6.30121 1.2978 -0.103001 0.45093 
 1162.58  246.386  -6.25 1.29793 -0.103115 0.450284 
 1162.58  246.386  -5.44127 1.29657 -0.102575 0.446941 
 1162.58  246.386  -0.404411 1.28701 -0.09861979999999999 0.423251 
 1162.58  246.386  -0.228683 1.28674 -0.09854259999999999 0.422554 

ZONE T="009.1 case2b a7 medium, p1, wB, line2"
# extract along Z at X=1181.87, Y=246.386, from wing upper surface to at least 59mm high above surface
 1181.87  246.386  -43.0607 1.34413 -0.372343 0.769348 
 1181.87  246.386  -43.0032 1.37125 -0.379169 0.783604 
 1181.87  246.386  -42.9414 1.39518 -0.385399 0.79581 
 1181.87  246.386  -42.8659 1.4152 -0.391057 0.805563 
 1181.87  246.386  -42.7737 1.43075 -0.396205 0.812507 
 1181.87  246.386  -42.6609 1.44141 -0.400938 0.816416 
 1181.87  246.386  -42.5234 1.44719 -0.405337 0.817233 
 1181.87  246.386  -42.3555 1.44869 -0.409874 0.815191 
 1181.87  246.386  -42.1504 1.4463 -0.414341 0.8103050000000001 
 1181.87  246.386  -41.9007 1.4405 -0.418791 0.802792 
 1181.87  246.386  -41.5966 1.43163 -0.423356 0.792631 
 1181.87  246.386  -41.2262 1.41989 -0.428139 0.779956 
 1181.87  246.386  -40.7758 1.40571 -0.433013 0.76488 
 1181.87  246.386  -40.2287 1.38933 -0.43664 0.747153 
 1181.87  246.386  -40.1704 1.3864 -0.436499 0.743738 
 1181.87  246.386  -39.881 1.37868 -0.436974 0.7344850000000001 
 1181.87  246.386  -39.6076 1.37132 -0.437173 0.726503 
 1181.87  246.386  -39.5646 1.3721 -0.437286 0.726925 
 1181.87  246.386  -39.3887 1.3697 -0.435777 0.721896 
 1181.87  246.386  -39.3488 1.367 -0.436472 0.719158 
 1181.87  246.386  -39.1032 1.36345 -0.43465 0.712668 
 1181.87  246.386  -39.0577 1.36522 -0.432916 0.712527 
 1181.87  246.386  -38.8659 1.36143 -0.432188 0.706829 
 1181.87  246.386  -38.7641 1.36092 -0.43025 0.703862 
 1181.87  246.386  -38.6473 1.36051 -0.428477 0.701284 
 1181.87  246.386  -38.4355 1.36085 -0.423886 0.6963009999999999 
 1181.87  246.386  -38.2337 1.3624 -0.418559 0.691787 
 1181.87  246.386  -38.0413 1.3651 -0.412586 0.687746 
 1181.87  246.386  -37.8577 1.36894 -0.406071 0.684235 
 1181.87  246.386  -37.8042 1.37023 -0.402726 0.682487 
 1181.87  246.386  -37.6824 1.37381 -0.39912 0.681215 
 1181.87  246.386  -37.515 1.37961 -0.39183 0.678644 
 1181.87  246.386  -37.3548 1.38621 -0.384285 0.676497 
 1181.87  246.386  -37.2016 1.39352 -0.376576 0.674728 
 1181.87  246.386  -37.0548 1.40145 -0.368758 0.673339 
 1181.87  246.386  -36.914 1.40989 -0.360896 0.672291 
 1181.87  246.386  -36.7786 1.4188 -0.35303 0.6715449999999999 
 1181.87  246.386  -36.6484 1.42807 -0.345188 0.671073 
 1181.87  246.386  -36.5236 1.43555 -0.339091 0.670891 
 1181.87  246.386  -36.4051 1.44736 -0.329359 0.670531 
 1181.87  246.386  -36.2906 1.45731 -0.321461 0.670461 
 1181.87  246.386  -36.1796 1.46743 -0.313645 0.670548 
 1181.87  246.386  -36.0717 1.47766 -0.305911 0.67077 
 1181.87  246.386  -35.9667 1.48795 -0.298268 0.671096 
 1181.87  246.386  -35.8641 1.49823 -0.290735 0.671508 
 1181.87  246.386  -35.7637 1.50841 -0.283359 0.671966 
 1181.87  246.386  -35.665 1.51832 -0.276204 0.672446 
 1181.87  246.386  -35.5678 1.52777 -0.26935 0.6728769999999999 
 1181.87  246.386  -35.4719 1.53644 -0.262877 0.67325 
 1181.87  246.386  -35.3768 1.54407 -0.256973 0.673275 
 1181.87  246.386  -35.2821 1.55001 -0.2517 0.673498 
 1181.87  246.386  -35.2267 1.55784 -0.247255 0.673219 
 1181.87  246.386  -35.1878 1.55502 -0.248294 0.671351 
 1181.87  246.386  -35.0934 1.55728 -0.245873 0.670088 
 1181.87  246.386  -34.991 1.55674 -0.2451 0.667921 
 1181.87  246.386  -34.8885 1.56442 -0.241619 0.664487 
 1181.87  246.386  -34.7861 1.56507 -0.239709 0.662956 
 1181.87  246.386  -34.6832 1.56327 -0.238846 0.660407 
 1181.87  246.386  -34.5799 1.56194 -0.23824 0.658243 
 1181.87  246.386  -34.4757 1.56081 -0.237731 0.656192 
 1181.87  246.386  -34.3708 1.55975 -0.237262 0.65419 
 1181.87  246.386  -34.2648 1.55869 -0.2368 0.652184 
 1181.87  246.386  -34.1575 1.55763 -0.236348 0.650173 
 1181.87  246.386  -34.0486 1.55657 -0.2359 0.64814 
 1181.87  246.386  -33.9381 1.55549 -0.235441 0.646095 
 1181.87  246.386  -33.8255 1.55439 -0.234975 0.644023 
 1181.87  246.386  -33.7109 1.55326 -0.234503 0.641922 
 1181.87  246.386  -33.5939 1.55211 -0.234022 0.639788 
 1181.87  246.386  -33.4744 1.55094 -0.233535 0.637619 
 1181.87  246.386  -33.3518 1.54973 -0.23304 0.635409 
 1181.87  246.386  -33.2264 1.54851 -0.232521 0.633168 
 1181.87  246.386  -33.0976 1.54726 -0.231989 0.630879 
 1181.87  246.386  -32.9652 1.54599 -0.231431 0.628546 
 1181.87  246.386  -32.8289 1.54469 -0.230852 0.626162 
 1181.87  246.386  -32.6886 1.54336 -0.230227 0.623723 
 1181.87  246.386  -32.5437 1.54199 -0.229584 0.621225 
 1181.87  246.386  -32.3941 1.54059 -0.228911 0.618666 
 1181.87  246.386  -32.2394 1.53914 -0.228217 0.6160409999999999 
 1181.87  246.386  -32.0792 1.53765 -0.227521 0.613356 
 1181.87  246.386  -31.9131 1.53611 -0.226812 0.6106 
 1181.87  246.386  -31.7406 1.53452 -0.226099 0.607772 
 1181.87  246.386  -31.561 1.53287 -0.225375 0.604864 
 1181.87  246.386  -31.3737 1.53116 -0.22466 0.60187 
 1181.87  246.386  -31.1778 1.52939 -0.223924 0.598778 
 1181.87  246.386  -30.9718 1.52756 -0.22317 0.595573 
 1181.87  246.386  -30.7543 1.52564 -0.222386 0.592235 
 1181.87  246.386  -30.5234 1.52365 -0.221549 0.588755 
 1181.87  246.386  -30.275 1.52156 -0.220656 0.5850649999999999 
 1181.87  246.386  -30.0045 1.51935 -0.219685 0.581125 
 1181.87  246.386  -29.7051 1.51696 -0.218621 0.576855 
 1181.87  246.386  -29.3657 1.51436 -0.217403 0.572126 
 1181.87  246.386  -29.0479 1.512 -0.21628 0.567814 
 1181.87  246.386  -28.9731 1.5114 -0.215965 0.566793 
 1181.87  246.386  -28.513 1.50783 -0.214049 0.560674 
 1181.87  246.386  -27.94 1.50342 -0.211696 0.553325 
 1181.87  246.386  -27.2052 1.49772 -0.208677 0.544275 
 1181.87  246.386  -26.2436 1.49019 -0.204707 0.532991 
 1181.87  246.386  -25.9544 1.48749 -0.203308 0.529484 
 1181.87  246.386  -25.3045 1.48288 -0.200848 0.522569 
 1181.87  246.386  -24.9785 1.48028 -0.19948 0.519035 
 1181.87  246.386  -23.3281 1.46799 -0.19302 0.502373 
 1181.87  246.386  -23.1399 1.46733 -0.192842 0.501055 
 1181.87  246.386  -22.3277 1.46127 -0.189677 0.493169 
 1181.87  246.386  -21.508 1.45645 -0.187304 0.486273 
 1181.87  246.386  -21.2094 1.45377 -0.185975 0.48334 
 1181.87  246.386  -18.5445 1.43841 -0.178277 0.462732 
 1181.87  246.386  -18.1491 1.43641 -0.177266 0.460013 
 1181.87  246.386  -17.9959 1.43438 -0.175997 0.458065 
 1181.87  246.386  -15.3078 1.42015 -0.168607 0.44104 
 1181.87  246.386  -15.0137 1.41829 -0.167511 0.43898 
 1181.87  246.386  -12.8037 1.40616 -0.161143 0.425605 
 1181.87  246.386  -11.3564 1.39887 -0.157235 0.417939 
 1181.87  246.386  -10.0912 1.39315 -0.154207 0.411592 
 1181.87  246.386  -8.98001 1.38882 -0.152154 0.406502 
 1181.87  246.386  -6.72703 1.37801 -0.146334 0.395887 
 1181.87  246.386  -6.60913 1.37744 -0.146026 0.395345 
 1181.87  246.386  -6.56138 1.37695 -0.145534 0.394977 
 1181.87  246.386  0.73291 1.34913 -0.131508 0.367512 
 1181.87  246.386  1.38889 1.34709 -0.130465 0.364918 
 1181.87  246.386  1.87983 1.34556 -0.129818 0.363889 
 1181.87  246.386  5.47155 1.3343 -0.124443 0.353087 
 1181.87  246.386  9.02778 1.32234 -0.11869 0.342558 
 1181.87  246.386  9.41202 1.32135 -0.118204 0.342097 
 1181.87  246.386  10.8429 1.31771 -0.116692 0.338533 
 1181.87  246.386  16.6667 1.30205 -0.109919 0.324601 
 1181.87  246.386  16.7393 1.30247 -0.110242 0.325147 

ZONE T="009.1 case2b a7 medium, p1, wC, line1"
# extract along Z at X=1296.28, Y=246.386, from wing upper surface to at least 59mm high above surface
 1296.28  246.386  -37.5813 0.585286 -0.084623 -0.0239149 
 1296.28  246.386  -37.5485 0.6043539999999999 -0.08791400000000001 -0.0246745 
 1296.28  246.386  -37.505 0.661658 -0.0986798 -0.0269129 
 1296.28  246.386  -37.4573 0.700404 -0.106954 -0.0283643 
 1296.28  246.386  -37.3858 0.740106 -0.116542 -0.0297653 
 1296.28  246.386  -37.3375 0.760548 -0.121999 -0.0304396 
 1296.28  246.386  -37.2783 0.781573 -0.128022 -0.0310916 
 1296.28  246.386  -37.2059 0.803385 -0.134739 -0.0317164 
 1296.28  246.386  -37.1171 0.826238 -0.142309 -0.0323076 
 1296.28  246.386  -37.0083 0.850429 -0.150929 -0.0328545 
 1296.28  246.386  -36.8752 0.87631 -0.160833 -0.0333439 
 1296.28  246.386  -36.712 0.904226 -0.172299 -0.0337389 
 1296.28  246.386  -36.5122 0.93451 -0.185591 -0.0340171 
 1296.28  246.386  -36.2675 0.96722 -0.200981 -0.0341296 
 1296.28  246.386  -35.9678 1.00197 -0.218568 -0.0339772 
 1296.28  246.386  -35.6009 1.03775 -0.237842 -0.0334218 
 1296.28  246.386  -35.3303 1.0585 -0.249541 -0.0326878 
 1296.28  246.386  -35.1943 1.06858 -0.255285 -0.0323295 
 1296.28  246.386  -35.1517 1.0721 -0.257418 -0.0322883 
 1296.28  246.386  -35.0583 1.07717 -0.260262 -0.0318507 
 1296.28  246.386  -34.9225 1.08504 -0.264825 -0.0314802 
 1296.28  246.386  -34.7867 1.09221 -0.269001 -0.0310649 
 1296.28  246.386  -34.6509 1.09871 -0.272791 -0.0306424 
 1296.28  246.386  -34.6019 1.10096 -0.27393 -0.0304184 
 1296.28  246.386  -34.5152 1.1046 -0.276197 -0.0302069 
 1296.28  246.386  -34.3796 1.10992 -0.27922 -0.0297647 
 1296.28  246.386  -34.244 1.11471 -0.281868 -0.029318 
 1296.28  246.386  -34.1084 1.11903 -0.284154 -0.028869 
 1296.28  246.386  -33.9729 1.12291 -0.286092 -0.0284205 
 1296.28  246.386  -33.9291 1.12416 -0.286567 -0.0282146 
 1296.28  246.386  -33.8374 1.12643 -0.287701 -0.0279748 
 1296.28  246.386  -33.7019 1.12961 -0.288999 -0.0275336 
 1296.28  246.386  -33.5665 1.13252 -0.29001 -0.0270983 
 1296.28  246.386  -33.431 1.13519 -0.290752 -0.0266705 
 1296.28  246.386  -33.2956 1.13767 -0.291248 -0.0262504 
 1296.28  246.386  -33.1602 1.13999 -0.291515 -0.0258394 
 1296.28  246.386  -33.0249 1.14219 -0.291581 -0.0254384 
 1296.28  246.386  -32.8896 1.1443 -0.291453 -0.0250467 
 1296.28  246.386  -32.7542 1.14634 -0.291152 -0.0246657 
 1296.28  246.386  -32.6189 1.14835 -0.290684 -0.0242947 
 1296.28  246.386  -32.4837 1.15032 -0.290062 -0.0239347 
 1296.28  246.386  -32.3484 1.1523 -0.289295 -0.0235853 
 1296.28  246.386  -32.2132 1.15428 -0.288394 -0.0232468 
 1296.28  246.386  -32.0779 1.15629 -0.287368 -0.0229191 
 1296.28  246.386  -31.9426 1.15833 -0.286225 -0.0226027 
 1296.28  246.386  -31.8074 1.16042 -0.284974 -0.0222966 
 1296.28  246.386  -31.6723 1.16255 -0.28362 -0.0220011 
 1296.28  246.386  -31.5371 1.16475 -0.28217 -0.0217159 
 1296.28  246.386  -31.4019 1.167 -0.280631 -0.021441 
 1296.28  246.386  -31.2667 1.16933 -0.279006 -0.0211757 
 1296.28  246.386  -31.1316 1.17173 -0.277302 -0.0209205 
 1296.28  246.386  -30.9965 1.1742 -0.27552 -0.0206766 
 1296.28  246.386  -30.8613 1.17675 -0.273667 -0.020425 
 1296.28  246.386  -30.7262 1.17938 -0.271739 -0.0201958 
 1296.28  246.386  -30.5911 1.1821 -0.269743 -0.019977 
 1296.28  246.386  -30.456 1.18489 -0.267685 -0.019767 
 1296.28  246.386  -30.3209 1.18777 -0.265566 -0.0195648 
 1296.28  246.386  -30.1858 1.19074 -0.263389 -0.0193704 
 1296.28  246.386  -30.0507 1.19378 -0.261156 -0.0191838 
 1296.28  246.386  -29.9156 1.19691 -0.258871 -0.0190044 
 1296.28  246.386  -29.7806 1.20012 -0.256536 -0.0188318 
 1296.28  246.386  -29.6455 1.20341 -0.25415 -0.0186658 
 1296.28  246.386  -29.5104 1.20678 -0.251718 -0.0185061 
 1296.28  246.386  -29.3753 1.21023 -0.249239 -0.0183527 
 1296.28  246.386  -29.2403 1.21376 -0.246716 -0.0182042 
 1296.28  246.386  -29.1052 1.21736 -0.244147 -0.0180616 
 1296.28  246.386  -28.9701 1.22104 -0.241533 -0.0179248 
 1296.28  246.386  -28.8351 1.22479 -0.238874 -0.0177932 
 1296.28  246.386  -28.7 1.22861 -0.236176 -0.0176666 
 1296.28  246.386  -28.565 1.23249 -0.233443 -0.0175448 
 1296.28  246.386  -28.4299 1.23644 -0.230678 -0.0174273 
 1296.28  246.386  -28.2948 1.24045 -0.227884 -0.0173136 
 1296.28  246.386  -28.1598 1.24451 -0.225063 -0.0172037 
 1296.28  246.386  -28.0247 1.24864 -0.222218 -0.0170968 
 1296.28  246.386  -27.8897 1.25281 -0.219354 -0.0169931 
 1296.28  246.386  -27.7546 1.25703 -0.216473 -0.0168919 
 1296.28  246.386  -27.6196 1.26129 -0.213579 -0.0167929 
 1296.28  246.386  -27.4845 1.2656 -0.210676 -0.0166957 
 1296.28  246.386  -27.3494 1.26994 -0.20777 -0.0166 
 1296.28  246.386  -27.2144 1.27431 -0.204862 -0.0165052 
 1296.28  246.386  -27.0793 1.2787 -0.201953 -0.0164106 
 1296.28  246.386  -26.9442 1.28312 -0.199045 -0.0163165 
 1296.28  246.386  -26.8091 1.28754 -0.19614 -0.0162212 
 1296.28  246.386  -26.6741 1.29198 -0.193239 -0.0161141 
 1296.28  246.386  -26.539 1.29641 -0.190346 -0.0160188 
 1296.28  246.386  -26.4039 1.30084 -0.187462 -0.0159194 
 1296.28  246.386  -26.2688 1.30526 -0.18459 -0.0158191 
 1296.28  246.386  -26.1337 1.30965 -0.181733 -0.0157144 
 1296.28  246.386  -25.9986 1.31402 -0.178895 -0.0156062 
 1296.28  246.386  -25.8635 1.31834 -0.176079 -0.0154937 
 1296.28  246.386  -25.7284 1.32261 -0.173289 -0.0153766 
 1296.28  246.386  -25.5933 1.32683 -0.17053 -0.015254 
 1296.28  246.386  -25.4581 1.33096 -0.167806 -0.0151255 
 1296.28  246.386  -25.323 1.33502 -0.165123 -0.014991 
 1296.28  246.386  -25.1879 1.33898 -0.162485 -0.0148496 
 1296.28  246.386  -25.0527 1.34282 -0.159898 -0.0147015 
 1296.28  246.386  -24.9176 1.34655 -0.157366 -0.0145465 
 1296.28  246.386  -24.7824 1.35013 -0.154897 -0.0143843 
 1296.28  246.386  -24.6473 1.35356 -0.152495 -0.0142154 
 1296.28  246.386  -24.5121 1.35682 -0.150167 -0.0140393 
 1296.28  246.386  -24.3769 1.35989 -0.147916 -0.013856 
 1296.28  246.386  -24.2418 1.36276 -0.145741 -0.0136662 
 1296.28  246.386  -24.1066 1.36541 -0.143639 -0.0134705 
 1296.28  246.386  -23.9714 1.36784 -0.141604 -0.0132695 
 1296.28  246.386  -23.8362 1.37002 -0.139633 -0.0130643 
 1296.28  246.386  -23.7009 1.37195 -0.137735 -0.0128556 
 1296.28  246.386  -23.5657 1.37363 -0.135916 -0.0126436 
 1296.28  246.386  -23.4305 1.37506 -0.134178 -0.0124281 
 1296.28  246.386  -23.2952 1.37625 -0.132526 -0.0122104 
 1296.28  246.386  -23.16 1.37721 -0.130964 -0.0119911 
 1296.28  246.386  -23.0247 1.37796 -0.129498 -0.0117706 
 1296.28  246.386  -22.8894 1.37851 -0.128141 -0.0115477 
 1296.28  246.386  -22.7541 1.37888 -0.126892 -0.01132 
 1296.28  246.386  -22.6188 1.3791 -0.125766 -0.0110844 
 1296.28  246.386  -22.4835 1.37915 -0.124766 -0.0108327 
 1296.28  246.386  -22.3482 1.37914 -0.123937 -0.0105856 
 1296.28  246.386  -22.2129 1.37905 -0.123258 -0.0103246 
 1296.28  246.386  -22.0776 1.37889 -0.122747 -0.0100541 
 1296.28  246.386  -21.9422 1.3787 -0.122391 -0.00976869 
 1296.28  246.386  -21.8069 1.37847 -0.122169 -0.00946994 
 1296.28  246.386  -21.6715 1.37823 -0.122097 -0.009159840000000001 
 1296.28  246.386  -21.5361 1.378 -0.122126 -0.00883721 
 1296.28  246.386  -21.4008 1.37778 -0.122215 -0.008504060000000001 
 1296.28  246.386  -21.2654 1.37757 -0.122355 -0.008164299999999999 
 1296.28  246.386  -21.13 1.37739 -0.122515 -0.00782104 
 1296.28  246.386  -20.9946 1.37724 -0.122676 -0.0074744 
 1296.28  246.386  -20.8592 1.3771 -0.12282 -0.00713306 
 1296.28  246.386  -20.7237 1.37697 -0.12293 -0.00677398 
 1296.28  246.386  -20.5518 1.3768 -0.123029 -0.00633048 
 1296.28  246.386  -20.318 1.37658 -0.12307 -0.00573827 
 1296.28  246.386  -20.0003 1.37625 -0.123015 -0.0049529 
 1296.28  246.386  -19.569 1.37583 -0.122915 -0.00391027 
 1296.28  246.386  -18.984 1.37527 -0.122764 -0.00251933 
 1296.28  246.386  -18.393 1.37471 -0.122672 -0.00114391 
 1296.28  246.386  -18.1919 1.37451 -0.122643 -0.000670052 
 1296.28  246.386  -17.4088 1.37373 -0.122572 0.00111759 
 1296.28  246.386  -17.122 1.37344 -0.122546 0.00177528 
 1296.28  246.386  -15.6804 1.37181 -0.122239 0.00498852 
 1296.28  246.386  -13.7452 1.36951 -0.121519 0.009113400000000001 
 1296.28  246.386  -11.1603 1.36631 -0.120235 0.0143335 
 1296.28  246.386  -7.73087 1.36207 -0.118519 0.0208269 
 1296.28  246.386  -3.22215 1.3561 -0.116262 0.028759 
 1296.28  246.386  2.06576 1.34897 -0.113301 0.0372668 
 1296.28  246.386  2.63528 1.3482 -0.11298 0.0381781 
 1296.28  246.386  5.81858 1.34383 -0.111103 0.0427325 
 1296.28  246.386  10.1264 1.3379 -0.108549 0.0490334 
 1296.28  246.386  10.2091 1.33777 -0.108505 0.0491452 
 1296.28  246.386  17.1662 1.32806 -0.104925 0.0579121 
 1296.28  246.386  19.5162 1.32474 -0.103703 0.0608802 
 1296.28  246.386  19.7977 1.32437 -0.103579 0.0612205 
 1296.28  246.386  22.2187 1.32102 -0.102388 0.0637717 

ZONE T="009.1 case2b a7 medium, p1, wD, line1"
# extract along Z at X=1461.48, Y=246.386, from wing upper surface to at least 59mm high above surface
 1461.48  246.386  -51.2331 0.506565 -0.0158802 -0.06371 
 1461.48  246.386  -51.1719 0.520161 -0.0174454 -0.065412 
 1461.48  246.386  -51.1318 0.5338039999999999 -0.0192361 -0.0671057 
 1461.48  246.386  -51.0827 0.54752 -0.0212862 -0.06878869999999999 
 1461.48  246.386  -51.0226 0.561354 -0.0236338 -0.0704584 
 1461.48  246.386  -50.9489 0.575392 -0.0263186 -0.0721155 
 1461.48  246.386  -50.8586 0.589689 -0.0293956 -0.0737548 
 1461.48  246.386  -50.7481 0.60441 -0.0329218 -0.0753795 
 1461.48  246.386  -50.6971 0.61348 -0.0347258 -0.0764965 
 1461.48  246.386  -50.6126 0.619752 -0.0369651 -0.07700170000000001 
 1461.48  246.386  -50.559 0.626452 -0.0385716 -0.0776852 
 1461.48  246.386  -50.4467 0.635741 -0.0416211 -0.0785743 
 1461.48  246.386  -50.2829 0.647455 -0.0458508 -0.0796162 
 1461.48  246.386  -50.2434 0.650307 -0.0468475 -0.0798668 
 1461.48  246.386  -50.145 0.656543 -0.0492464 -0.080375 
 1461.48  246.386  -50.0071 0.664958 -0.0525027 -0.08103340000000001 
 1461.48  246.386  -49.8692 0.6728460000000001 -0.055632 -0.0816137 
 1461.48  246.386  -49.7314 0.6803169999999999 -0.0586406 -0.08213139999999999 
 1461.48  246.386  -49.5936 0.6874479999999999 -0.0615357 -0.0825982 
 1461.48  246.386  -49.4558 0.694302 -0.0643238 -0.0830236 
 1461.48  246.386  -49.3181 0.700928 -0.0670106 -0.08341519999999999 
 1461.48  246.386  -49.1804 0.707363 -0.06959949999999999 -0.08377900000000001 
 1461.48  246.386  -49.0427 0.713637 -0.07209459999999999 -0.08412 